V -t * -v 1.0a5 -a 0
A -t * -n 1 -p 0 -o 0x7fffffff -c 30 -a 1
A -t * -h 1 -m 1073741823 -s 0
c -t * -i 1 -n Blue
c -t * -i 2 -n Red
n -t * -a 4 -s 4 -S UP -v circle -c black -i black
n -t * -a 0 -s 0 -S UP -v circle -c black -i black
n -t * -a 5 -s 5 -S UP -v circle -c black -i black
n -t * -a 1 -s 1 -S UP -v circle -c black -i black
n -t * -a 2 -s 2 -S UP -v circle -c black -i black
n -t * -a 3 -s 3 -S UP -v circle -c black -i black
l -t * -s 0 -d 2 -S UP -r 1000000 -D 0.050000000000000003 -c black -o right-down
l -t * -s 1 -d 2 -S UP -r 1000000 -D 0.050000000000000003 -c black -o right-up
l -t * -s 2 -d 3 -S UP -r 1000000 -D 0.050000000000000003 -c black -o right
l -t * -s 3 -d 4 -S UP -r 1000000 -D 0.050000000000000003 -c black -o right-up
l -t * -s 3 -d 5 -S UP -r 1000000 -D 0.050000000000000003 -c black -o right-down
+ -t 0 -s 0 -d 2 -p cbr -e 1000 -c 1 -i 0 -a 1 -x {0.0 4.0 0 ------- null}
- -t 0 -s 0 -d 2 -p cbr -e 1000 -c 1 -i 0 -a 1 -x {0.0 4.0 0 ------- null}
h -t 0 -s 0 -d 2 -p cbr -e 1000 -c 1 -i 0 -a 1 -x {0.0 4.0 -1 ------- null}
+ -t 0 -s 1 -d 2 -p tcp -e 40 -c 2 -i 1 -a 2 -x {1.0 5.0 0 ------- null}
- -t 0 -s 1 -d 2 -p tcp -e 40 -c 2 -i 1 -a 2 -x {1.0 5.0 0 ------- null}
h -t 0 -s 1 -d 2 -p tcp -e 40 -c 2 -i 1 -a 2 -x {1.0 5.0 -1 ------- null}
+ -t 0.004 -s 0 -d 2 -p cbr -e 1000 -c 1 -i 2 -a 1 -x {0.0 4.0 1 ------- null}
- -t 0.008 -s 0 -d 2 -p cbr -e 1000 -c 1 -i 2 -a 1 -x {0.0 4.0 1 ------- null}
h -t 0.008 -s 0 -d 2 -p cbr -e 1000 -c 1 -i 2 -a 1 -x {0.0 4.0 -1 ------- null}
+ -t 0.008 -s 0 -d 2 -p cbr -e 1000 -c 1 -i 3 -a 1 -x {0.0 4.0 2 ------- null}
+ -t 0.012 -s 0 -d 2 -p cbr -e 1000 -c 1 -i 4 -a 1 -x {0.0 4.0 3 ------- null}
- -t 0.016 -s 0 -d 2 -p cbr -e 1000 -c 1 -i 3 -a 1 -x {0.0 4.0 2 ------- null}
h -t 0.016 -s 0 -d 2 -p cbr -e 1000 -c 1 -i 3 -a 1 -x {0.0 4.0 -1 ------- null}
+ -t 0.016 -s 0 -d 2 -p cbr -e 1000 -c 1 -i 5 -a 1 -x {0.0 4.0 4 ------- null}
+ -t 0.02 -s 0 -d 2 -p cbr -e 1000 -c 1 -i 6 -a 1 -x {0.0 4.0 5 ------- null}
- -t 0.024 -s 0 -d 2 -p cbr -e 1000 -c 1 -i 4 -a 1 -x {0.0 4.0 3 ------- null}
h -t 0.024 -s 0 -d 2 -p cbr -e 1000 -c 1 -i 4 -a 1 -x {0.0 4.0 -1 ------- null}
+ -t 0.024 -s 0 -d 2 -p cbr -e 1000 -c 1 -i 7 -a 1 -x {0.0 4.0 6 ------- null}
+ -t 0.028 -s 0 -d 2 -p cbr -e 1000 -c 1 -i 8 -a 1 -x {0.0 4.0 7 ------- null}
- -t 0.032 -s 0 -d 2 -p cbr -e 1000 -c 1 -i 5 -a 1 -x {0.0 4.0 4 ------- null}
h -t 0.032 -s 0 -d 2 -p cbr -e 1000 -c 1 -i 5 -a 1 -x {0.0 4.0 -1 ------- null}
+ -t 0.032 -s 0 -d 2 -p cbr -e 1000 -c 1 -i 9 -a 1 -x {0.0 4.0 8 ------- null}
+ -t 0.036 -s 0 -d 2 -p cbr -e 1000 -c 1 -i 10 -a 1 -x {0.0 4.0 9 ------- null}
- -t 0.04 -s 0 -d 2 -p cbr -e 1000 -c 1 -i 6 -a 1 -x {0.0 4.0 5 ------- null}
h -t 0.04 -s 0 -d 2 -p cbr -e 1000 -c 1 -i 6 -a 1 -x {0.0 4.0 -1 ------- null}
+ -t 0.04 -s 0 -d 2 -p cbr -e 1000 -c 1 -i 11 -a 1 -x {0.0 4.0 10 ------- null}
+ -t 0.044 -s 0 -d 2 -p cbr -e 1000 -c 1 -i 12 -a 1 -x {0.0 4.0 11 ------- null}
- -t 0.048 -s 0 -d 2 -p cbr -e 1000 -c 1 -i 7 -a 1 -x {0.0 4.0 6 ------- null}
h -t 0.048 -s 0 -d 2 -p cbr -e 1000 -c 1 -i 7 -a 1 -x {0.0 4.0 -1 ------- null}
+ -t 0.048 -s 0 -d 2 -p cbr -e 1000 -c 1 -i 13 -a 1 -x {0.0 4.0 12 ------- null}
r -t 0.05032 -s 1 -d 2 -p tcp -e 40 -c 2 -i 1 -a 2 -x {1.0 5.0 0 ------- null}
+ -t 0.05032 -s 2 -d 3 -p tcp -e 40 -c 2 -i 1 -a 2 -x {1.0 5.0 0 ------- null}
- -t 0.05032 -s 2 -d 3 -p tcp -e 40 -c 2 -i 1 -a 2 -x {1.0 5.0 0 ------- null}
h -t 0.05032 -s 2 -d 3 -p tcp -e 40 -c 2 -i 1 -a 2 -x {1.0 5.0 -1 ------- null}
+ -t 0.052 -s 0 -d 2 -p cbr -e 1000 -c 1 -i 14 -a 1 -x {0.0 4.0 13 ------- null}
- -t 0.056 -s 0 -d 2 -p cbr -e 1000 -c 1 -i 8 -a 1 -x {0.0 4.0 7 ------- null}
h -t 0.056 -s 0 -d 2 -p cbr -e 1000 -c 1 -i 8 -a 1 -x {0.0 4.0 -1 ------- null}
+ -t 0.056 -s 0 -d 2 -p cbr -e 1000 -c 1 -i 15 -a 1 -x {0.0 4.0 14 ------- null}
r -t 0.058 -s 0 -d 2 -p cbr -e 1000 -c 1 -i 0 -a 1 -x {0.0 4.0 0 ------- null}
+ -t 0.058 -s 2 -d 3 -p cbr -e 1000 -c 1 -i 0 -a 1 -x {0.0 4.0 0 ------- null}
- -t 0.058 -s 2 -d 3 -p cbr -e 1000 -c 1 -i 0 -a 1 -x {0.0 4.0 0 ------- null}
h -t 0.058 -s 2 -d 3 -p cbr -e 1000 -c 1 -i 0 -a 1 -x {0.0 4.0 -1 ------- null}
+ -t 0.06 -s 0 -d 2 -p cbr -e 1000 -c 1 -i 16 -a 1 -x {0.0 4.0 15 ------- null}
- -t 0.064 -s 0 -d 2 -p cbr -e 1000 -c 1 -i 9 -a 1 -x {0.0 4.0 8 ------- null}
h -t 0.064 -s 0 -d 2 -p cbr -e 1000 -c 1 -i 9 -a 1 -x {0.0 4.0 -1 ------- null}
+ -t 0.064 -s 0 -d 2 -p cbr -e 1000 -c 1 -i 17 -a 1 -x {0.0 4.0 16 ------- null}
r -t 0.066 -s 0 -d 2 -p cbr -e 1000 -c 1 -i 2 -a 1 -x {0.0 4.0 1 ------- null}
+ -t 0.066 -s 2 -d 3 -p cbr -e 1000 -c 1 -i 2 -a 1 -x {0.0 4.0 1 ------- null}
- -t 0.066 -s 2 -d 3 -p cbr -e 1000 -c 1 -i 2 -a 1 -x {0.0 4.0 1 ------- null}
h -t 0.066 -s 2 -d 3 -p cbr -e 1000 -c 1 -i 2 -a 1 -x {0.0 4.0 -1 ------- null}
+ -t 0.068 -s 0 -d 2 -p cbr -e 1000 -c 1 -i 18 -a 1 -x {0.0 4.0 17 ------- null}
- -t 0.072 -s 0 -d 2 -p cbr -e 1000 -c 1 -i 10 -a 1 -x {0.0 4.0 9 ------- null}
h -t 0.072 -s 0 -d 2 -p cbr -e 1000 -c 1 -i 10 -a 1 -x {0.0 4.0 -1 ------- null}
+ -t 0.072 -s 0 -d 2 -p cbr -e 1000 -c 1 -i 19 -a 1 -x {0.0 4.0 18 ------- null}
r -t 0.074 -s 0 -d 2 -p cbr -e 1000 -c 1 -i 3 -a 1 -x {0.0 4.0 2 ------- null}
+ -t 0.074 -s 2 -d 3 -p cbr -e 1000 -c 1 -i 3 -a 1 -x {0.0 4.0 2 ------- null}
- -t 0.074 -s 2 -d 3 -p cbr -e 1000 -c 1 -i 3 -a 1 -x {0.0 4.0 2 ------- null}
h -t 0.074 -s 2 -d 3 -p cbr -e 1000 -c 1 -i 3 -a 1 -x {0.0 4.0 -1 ------- null}
+ -t 0.076 -s 0 -d 2 -p cbr -e 1000 -c 1 -i 20 -a 1 -x {0.0 4.0 19 ------- null}
- -t 0.08 -s 0 -d 2 -p cbr -e 1000 -c 1 -i 11 -a 1 -x {0.0 4.0 10 ------- null}
h -t 0.08 -s 0 -d 2 -p cbr -e 1000 -c 1 -i 11 -a 1 -x {0.0 4.0 -1 ------- null}
+ -t 0.08 -s 0 -d 2 -p cbr -e 1000 -c 1 -i 21 -a 1 -x {0.0 4.0 20 ------- null}
r -t 0.082 -s 0 -d 2 -p cbr -e 1000 -c 1 -i 4 -a 1 -x {0.0 4.0 3 ------- null}
+ -t 0.082 -s 2 -d 3 -p cbr -e 1000 -c 1 -i 4 -a 1 -x {0.0 4.0 3 ------- null}
- -t 0.082 -s 2 -d 3 -p cbr -e 1000 -c 1 -i 4 -a 1 -x {0.0 4.0 3 ------- null}
h -t 0.082 -s 2 -d 3 -p cbr -e 1000 -c 1 -i 4 -a 1 -x {0.0 4.0 -1 ------- null}
+ -t 0.084 -s 0 -d 2 -p cbr -e 1000 -c 1 -i 22 -a 1 -x {0.0 4.0 21 ------- null}
- -t 0.088 -s 0 -d 2 -p cbr -e 1000 -c 1 -i 12 -a 1 -x {0.0 4.0 11 ------- null}
h -t 0.088 -s 0 -d 2 -p cbr -e 1000 -c 1 -i 12 -a 1 -x {0.0 4.0 -1 ------- null}
+ -t 0.0880000000000001 -s 0 -d 2 -p cbr -e 1000 -c 1 -i 23 -a 1 -x {0.0 4.0 22 ------- null}
r -t 0.09 -s 0 -d 2 -p cbr -e 1000 -c 1 -i 5 -a 1 -x {0.0 4.0 4 ------- null}
+ -t 0.09 -s 2 -d 3 -p cbr -e 1000 -c 1 -i 5 -a 1 -x {0.0 4.0 4 ------- null}
- -t 0.09 -s 2 -d 3 -p cbr -e 1000 -c 1 -i 5 -a 1 -x {0.0 4.0 4 ------- null}
h -t 0.09 -s 2 -d 3 -p cbr -e 1000 -c 1 -i 5 -a 1 -x {0.0 4.0 -1 ------- null}
+ -t 0.0920000000000001 -s 0 -d 2 -p cbr -e 1000 -c 1 -i 24 -a 1 -x {0.0 4.0 23 ------- null}
- -t 0.096 -s 0 -d 2 -p cbr -e 1000 -c 1 -i 13 -a 1 -x {0.0 4.0 12 ------- null}
h -t 0.096 -s 0 -d 2 -p cbr -e 1000 -c 1 -i 13 -a 1 -x {0.0 4.0 -1 ------- null}
+ -t 0.0960000000000001 -s 0 -d 2 -p cbr -e 1000 -c 1 -i 25 -a 1 -x {0.0 4.0 24 ------- null}
r -t 0.098 -s 0 -d 2 -p cbr -e 1000 -c 1 -i 6 -a 1 -x {0.0 4.0 5 ------- null}
+ -t 0.098 -s 2 -d 3 -p cbr -e 1000 -c 1 -i 6 -a 1 -x {0.0 4.0 5 ------- null}
- -t 0.098 -s 2 -d 3 -p cbr -e 1000 -c 1 -i 6 -a 1 -x {0.0 4.0 5 ------- null}
h -t 0.098 -s 2 -d 3 -p cbr -e 1000 -c 1 -i 6 -a 1 -x {0.0 4.0 -1 ------- null}
+ -t 0.1 -s 0 -d 2 -p cbr -e 1000 -c 1 -i 26 -a 1 -x {0.0 4.0 25 ------- null}
r -t 0.10064 -s 2 -d 3 -p tcp -e 40 -c 2 -i 1 -a 2 -x {1.0 5.0 0 ------- null}
+ -t 0.10064 -s 3 -d 5 -p tcp -e 40 -c 2 -i 1 -a 2 -x {1.0 5.0 0 ------- null}
- -t 0.10064 -s 3 -d 5 -p tcp -e 40 -c 2 -i 1 -a 2 -x {1.0 5.0 0 ------- null}
h -t 0.10064 -s 3 -d 5 -p tcp -e 40 -c 2 -i 1 -a 2 -x {1.0 5.0 -1 ------- null}
- -t 0.104 -s 0 -d 2 -p cbr -e 1000 -c 1 -i 14 -a 1 -x {0.0 4.0 13 ------- null}
h -t 0.104 -s 0 -d 2 -p cbr -e 1000 -c 1 -i 14 -a 1 -x {0.0 4.0 -1 ------- null}
+ -t 0.104 -s 0 -d 2 -p cbr -e 1000 -c 1 -i 27 -a 1 -x {0.0 4.0 26 ------- null}
r -t 0.106 -s 0 -d 2 -p cbr -e 1000 -c 1 -i 7 -a 1 -x {0.0 4.0 6 ------- null}
+ -t 0.106 -s 2 -d 3 -p cbr -e 1000 -c 1 -i 7 -a 1 -x {0.0 4.0 6 ------- null}
- -t 0.106 -s 2 -d 3 -p cbr -e 1000 -c 1 -i 7 -a 1 -x {0.0 4.0 6 ------- null}
h -t 0.106 -s 2 -d 3 -p cbr -e 1000 -c 1 -i 7 -a 1 -x {0.0 4.0 -1 ------- null}
+ -t 0.108 -s 0 -d 2 -p cbr -e 1000 -c 1 -i 28 -a 1 -x {0.0 4.0 27 ------- null}
- -t 0.112 -s 0 -d 2 -p cbr -e 1000 -c 1 -i 15 -a 1 -x {0.0 4.0 14 ------- null}
h -t 0.112 -s 0 -d 2 -p cbr -e 1000 -c 1 -i 15 -a 1 -x {0.0 4.0 -1 ------- null}
+ -t 0.112 -s 0 -d 2 -p cbr -e 1000 -c 1 -i 29 -a 1 -x {0.0 4.0 28 ------- null}
r -t 0.114 -s 0 -d 2 -p cbr -e 1000 -c 1 -i 8 -a 1 -x {0.0 4.0 7 ------- null}
+ -t 0.114 -s 2 -d 3 -p cbr -e 1000 -c 1 -i 8 -a 1 -x {0.0 4.0 7 ------- null}
- -t 0.114 -s 2 -d 3 -p cbr -e 1000 -c 1 -i 8 -a 1 -x {0.0 4.0 7 ------- null}
h -t 0.114 -s 2 -d 3 -p cbr -e 1000 -c 1 -i 8 -a 1 -x {0.0 4.0 -1 ------- null}
r -t 0.116 -s 2 -d 3 -p cbr -e 1000 -c 1 -i 0 -a 1 -x {0.0 4.0 0 ------- null}
+ -t 0.116 -s 3 -d 4 -p cbr -e 1000 -c 1 -i 0 -a 1 -x {0.0 4.0 0 ------- null}
- -t 0.116 -s 3 -d 4 -p cbr -e 1000 -c 1 -i 0 -a 1 -x {0.0 4.0 0 ------- null}
h -t 0.116 -s 3 -d 4 -p cbr -e 1000 -c 1 -i 0 -a 1 -x {0.0 4.0 -1 ------- null}
+ -t 0.116 -s 0 -d 2 -p cbr -e 1000 -c 1 -i 30 -a 1 -x {0.0 4.0 29 ------- null}
- -t 0.12 -s 0 -d 2 -p cbr -e 1000 -c 1 -i 16 -a 1 -x {0.0 4.0 15 ------- null}
h -t 0.12 -s 0 -d 2 -p cbr -e 1000 -c 1 -i 16 -a 1 -x {0.0 4.0 -1 ------- null}
+ -t 0.12 -s 0 -d 2 -p cbr -e 1000 -c 1 -i 31 -a 1 -x {0.0 4.0 30 ------- null}
r -t 0.122 -s 0 -d 2 -p cbr -e 1000 -c 1 -i 9 -a 1 -x {0.0 4.0 8 ------- null}
+ -t 0.122 -s 2 -d 3 -p cbr -e 1000 -c 1 -i 9 -a 1 -x {0.0 4.0 8 ------- null}
- -t 0.122 -s 2 -d 3 -p cbr -e 1000 -c 1 -i 9 -a 1 -x {0.0 4.0 8 ------- null}
h -t 0.122 -s 2 -d 3 -p cbr -e 1000 -c 1 -i 9 -a 1 -x {0.0 4.0 -1 ------- null}
r -t 0.124 -s 2 -d 3 -p cbr -e 1000 -c 1 -i 2 -a 1 -x {0.0 4.0 1 ------- null}
+ -t 0.124 -s 3 -d 4 -p cbr -e 1000 -c 1 -i 2 -a 1 -x {0.0 4.0 1 ------- null}
- -t 0.124 -s 3 -d 4 -p cbr -e 1000 -c 1 -i 2 -a 1 -x {0.0 4.0 1 ------- null}
h -t 0.124 -s 3 -d 4 -p cbr -e 1000 -c 1 -i 2 -a 1 -x {0.0 4.0 -1 ------- null}
+ -t 0.124 -s 0 -d 2 -p cbr -e 1000 -c 1 -i 32 -a 1 -x {0.0 4.0 31 ------- null}
- -t 0.128 -s 0 -d 2 -p cbr -e 1000 -c 1 -i 17 -a 1 -x {0.0 4.0 16 ------- null}
h -t 0.128 -s 0 -d 2 -p cbr -e 1000 -c 1 -i 17 -a 1 -x {0.0 4.0 -1 ------- null}
+ -t 0.128 -s 0 -d 2 -p cbr -e 1000 -c 1 -i 33 -a 1 -x {0.0 4.0 32 ------- null}
r -t 0.13 -s 0 -d 2 -p cbr -e 1000 -c 1 -i 10 -a 1 -x {0.0 4.0 9 ------- null}
+ -t 0.13 -s 2 -d 3 -p cbr -e 1000 -c 1 -i 10 -a 1 -x {0.0 4.0 9 ------- null}
- -t 0.13 -s 2 -d 3 -p cbr -e 1000 -c 1 -i 10 -a 1 -x {0.0 4.0 9 ------- null}
h -t 0.13 -s 2 -d 3 -p cbr -e 1000 -c 1 -i 10 -a 1 -x {0.0 4.0 -1 ------- null}
r -t 0.132 -s 2 -d 3 -p cbr -e 1000 -c 1 -i 3 -a 1 -x {0.0 4.0 2 ------- null}
+ -t 0.132 -s 3 -d 4 -p cbr -e 1000 -c 1 -i 3 -a 1 -x {0.0 4.0 2 ------- null}
- -t 0.132 -s 3 -d 4 -p cbr -e 1000 -c 1 -i 3 -a 1 -x {0.0 4.0 2 ------- null}
h -t 0.132 -s 3 -d 4 -p cbr -e 1000 -c 1 -i 3 -a 1 -x {0.0 4.0 -1 ------- null}
+ -t 0.132 -s 0 -d 2 -p cbr -e 1000 -c 1 -i 34 -a 1 -x {0.0 4.0 33 ------- null}
- -t 0.136 -s 0 -d 2 -p cbr -e 1000 -c 1 -i 18 -a 1 -x {0.0 4.0 17 ------- null}
h -t 0.136 -s 0 -d 2 -p cbr -e 1000 -c 1 -i 18 -a 1 -x {0.0 4.0 -1 ------- null}
+ -t 0.136 -s 0 -d 2 -p cbr -e 1000 -c 1 -i 35 -a 1 -x {0.0 4.0 34 ------- null}
r -t 0.138 -s 0 -d 2 -p cbr -e 1000 -c 1 -i 11 -a 1 -x {0.0 4.0 10 ------- null}
+ -t 0.138 -s 2 -d 3 -p cbr -e 1000 -c 1 -i 11 -a 1 -x {0.0 4.0 10 ------- null}
- -t 0.138 -s 2 -d 3 -p cbr -e 1000 -c 1 -i 11 -a 1 -x {0.0 4.0 10 ------- null}
h -t 0.138 -s 2 -d 3 -p cbr -e 1000 -c 1 -i 11 -a 1 -x {0.0 4.0 -1 ------- null}
r -t 0.14 -s 2 -d 3 -p cbr -e 1000 -c 1 -i 4 -a 1 -x {0.0 4.0 3 ------- null}
+ -t 0.14 -s 3 -d 4 -p cbr -e 1000 -c 1 -i 4 -a 1 -x {0.0 4.0 3 ------- null}
- -t 0.14 -s 3 -d 4 -p cbr -e 1000 -c 1 -i 4 -a 1 -x {0.0 4.0 3 ------- null}
h -t 0.14 -s 3 -d 4 -p cbr -e 1000 -c 1 -i 4 -a 1 -x {0.0 4.0 -1 ------- null}
+ -t 0.14 -s 0 -d 2 -p cbr -e 1000 -c 1 -i 36 -a 1 -x {0.0 4.0 35 ------- null}
- -t 0.144 -s 0 -d 2 -p cbr -e 1000 -c 1 -i 19 -a 1 -x {0.0 4.0 18 ------- null}
h -t 0.144 -s 0 -d 2 -p cbr -e 1000 -c 1 -i 19 -a 1 -x {0.0 4.0 -1 ------- null}
+ -t 0.144 -s 0 -d 2 -p cbr -e 1000 -c 1 -i 37 -a 1 -x {0.0 4.0 36 ------- null}
r -t 0.146 -s 0 -d 2 -p cbr -e 1000 -c 1 -i 12 -a 1 -x {0.0 4.0 11 ------- null}
+ -t 0.146 -s 2 -d 3 -p cbr -e 1000 -c 1 -i 12 -a 1 -x {0.0 4.0 11 ------- null}
- -t 0.146 -s 2 -d 3 -p cbr -e 1000 -c 1 -i 12 -a 1 -x {0.0 4.0 11 ------- null}
h -t 0.146 -s 2 -d 3 -p cbr -e 1000 -c 1 -i 12 -a 1 -x {0.0 4.0 -1 ------- null}
r -t 0.148 -s 2 -d 3 -p cbr -e 1000 -c 1 -i 5 -a 1 -x {0.0 4.0 4 ------- null}
+ -t 0.148 -s 3 -d 4 -p cbr -e 1000 -c 1 -i 5 -a 1 -x {0.0 4.0 4 ------- null}
- -t 0.148 -s 3 -d 4 -p cbr -e 1000 -c 1 -i 5 -a 1 -x {0.0 4.0 4 ------- null}
h -t 0.148 -s 3 -d 4 -p cbr -e 1000 -c 1 -i 5 -a 1 -x {0.0 4.0 -1 ------- null}
+ -t 0.148 -s 0 -d 2 -p cbr -e 1000 -c 1 -i 38 -a 1 -x {0.0 4.0 37 ------- null}
r -t 0.15096 -s 3 -d 5 -p tcp -e 40 -c 2 -i 1 -a 2 -x {1.0 5.0 0 ------- null}
+ -t 0.15096 -s 5 -d 3 -p ack -e 40 -c 2 -i 39 -a 2 -x {5.0 1.0 0 ------- null}
- -t 0.15096 -s 5 -d 3 -p ack -e 40 -c 2 -i 39 -a 2 -x {5.0 1.0 0 ------- null}
h -t 0.15096 -s 5 -d 3 -p ack -e 40 -c 2 -i 39 -a 2 -x {5.0 1.0 -1 ------- null}
- -t 0.152 -s 0 -d 2 -p cbr -e 1000 -c 1 -i 20 -a 1 -x {0.0 4.0 19 ------- null}
h -t 0.152 -s 0 -d 2 -p cbr -e 1000 -c 1 -i 20 -a 1 -x {0.0 4.0 -1 ------- null}
+ -t 0.152 -s 0 -d 2 -p cbr -e 1000 -c 1 -i 40 -a 1 -x {0.0 4.0 38 ------- null}
r -t 0.154 -s 0 -d 2 -p cbr -e 1000 -c 1 -i 13 -a 1 -x {0.0 4.0 12 ------- null}
+ -t 0.154 -s 2 -d 3 -p cbr -e 1000 -c 1 -i 13 -a 1 -x {0.0 4.0 12 ------- null}
- -t 0.154 -s 2 -d 3 -p cbr -e 1000 -c 1 -i 13 -a 1 -x {0.0 4.0 12 ------- null}
h -t 0.154 -s 2 -d 3 -p cbr -e 1000 -c 1 -i 13 -a 1 -x {0.0 4.0 -1 ------- null}
r -t 0.156 -s 2 -d 3 -p cbr -e 1000 -c 1 -i 6 -a 1 -x {0.0 4.0 5 ------- null}
+ -t 0.156 -s 3 -d 4 -p cbr -e 1000 -c 1 -i 6 -a 1 -x {0.0 4.0 5 ------- null}
- -t 0.156 -s 3 -d 4 -p cbr -e 1000 -c 1 -i 6 -a 1 -x {0.0 4.0 5 ------- null}
h -t 0.156 -s 3 -d 4 -p cbr -e 1000 -c 1 -i 6 -a 1 -x {0.0 4.0 -1 ------- null}
+ -t 0.156 -s 0 -d 2 -p cbr -e 1000 -c 1 -i 41 -a 1 -x {0.0 4.0 39 ------- null}
- -t 0.16 -s 0 -d 2 -p cbr -e 1000 -c 1 -i 21 -a 1 -x {0.0 4.0 20 ------- null}
h -t 0.16 -s 0 -d 2 -p cbr -e 1000 -c 1 -i 21 -a 1 -x {0.0 4.0 -1 ------- null}
+ -t 0.16 -s 0 -d 2 -p cbr -e 1000 -c 1 -i 42 -a 1 -x {0.0 4.0 40 ------- null}
r -t 0.162 -s 0 -d 2 -p cbr -e 1000 -c 1 -i 14 -a 1 -x {0.0 4.0 13 ------- null}
+ -t 0.162 -s 2 -d 3 -p cbr -e 1000 -c 1 -i 14 -a 1 -x {0.0 4.0 13 ------- null}
- -t 0.162 -s 2 -d 3 -p cbr -e 1000 -c 1 -i 14 -a 1 -x {0.0 4.0 13 ------- null}
h -t 0.162 -s 2 -d 3 -p cbr -e 1000 -c 1 -i 14 -a 1 -x {0.0 4.0 -1 ------- null}
r -t 0.164 -s 2 -d 3 -p cbr -e 1000 -c 1 -i 7 -a 1 -x {0.0 4.0 6 ------- null}
+ -t 0.164 -s 3 -d 4 -p cbr -e 1000 -c 1 -i 7 -a 1 -x {0.0 4.0 6 ------- null}
- -t 0.164 -s 3 -d 4 -p cbr -e 1000 -c 1 -i 7 -a 1 -x {0.0 4.0 6 ------- null}
h -t 0.164 -s 3 -d 4 -p cbr -e 1000 -c 1 -i 7 -a 1 -x {0.0 4.0 -1 ------- null}
+ -t 0.164 -s 0 -d 2 -p cbr -e 1000 -c 1 -i 43 -a 1 -x {0.0 4.0 41 ------- null}
- -t 0.168 -s 0 -d 2 -p cbr -e 1000 -c 1 -i 22 -a 1 -x {0.0 4.0 21 ------- null}
h -t 0.168 -s 0 -d 2 -p cbr -e 1000 -c 1 -i 22 -a 1 -x {0.0 4.0 -1 ------- null}
+ -t 0.168 -s 0 -d 2 -p cbr -e 1000 -c 1 -i 44 -a 1 -x {0.0 4.0 42 ------- null}
r -t 0.17 -s 0 -d 2 -p cbr -e 1000 -c 1 -i 15 -a 1 -x {0.0 4.0 14 ------- null}
+ -t 0.17 -s 2 -d 3 -p cbr -e 1000 -c 1 -i 15 -a 1 -x {0.0 4.0 14 ------- null}
- -t 0.17 -s 2 -d 3 -p cbr -e 1000 -c 1 -i 15 -a 1 -x {0.0 4.0 14 ------- null}
h -t 0.17 -s 2 -d 3 -p cbr -e 1000 -c 1 -i 15 -a 1 -x {0.0 4.0 -1 ------- null}
r -t 0.172 -s 2 -d 3 -p cbr -e 1000 -c 1 -i 8 -a 1 -x {0.0 4.0 7 ------- null}
+ -t 0.172 -s 3 -d 4 -p cbr -e 1000 -c 1 -i 8 -a 1 -x {0.0 4.0 7 ------- null}
- -t 0.172 -s 3 -d 4 -p cbr -e 1000 -c 1 -i 8 -a 1 -x {0.0 4.0 7 ------- null}
h -t 0.172 -s 3 -d 4 -p cbr -e 1000 -c 1 -i 8 -a 1 -x {0.0 4.0 -1 ------- null}
+ -t 0.172 -s 0 -d 2 -p cbr -e 1000 -c 1 -i 45 -a 1 -x {0.0 4.0 43 ------- null}
r -t 0.174 -s 3 -d 4 -p cbr -e 1000 -c 1 -i 0 -a 1 -x {0.0 4.0 0 ------- null}
- -t 0.176 -s 0 -d 2 -p cbr -e 1000 -c 1 -i 23 -a 1 -x {0.0 4.0 22 ------- null}
h -t 0.176 -s 0 -d 2 -p cbr -e 1000 -c 1 -i 23 -a 1 -x {0.0 4.0 -1 ------- null}
+ -t 0.176 -s 0 -d 2 -p cbr -e 1000 -c 1 -i 46 -a 1 -x {0.0 4.0 44 ------- null}
r -t 0.178 -s 0 -d 2 -p cbr -e 1000 -c 1 -i 16 -a 1 -x {0.0 4.0 15 ------- null}
+ -t 0.178 -s 2 -d 3 -p cbr -e 1000 -c 1 -i 16 -a 1 -x {0.0 4.0 15 ------- null}
- -t 0.178 -s 2 -d 3 -p cbr -e 1000 -c 1 -i 16 -a 1 -x {0.0 4.0 15 ------- null}
h -t 0.178 -s 2 -d 3 -p cbr -e 1000 -c 1 -i 16 -a 1 -x {0.0 4.0 -1 ------- null}
r -t 0.18 -s 2 -d 3 -p cbr -e 1000 -c 1 -i 9 -a 1 -x {0.0 4.0 8 ------- null}
+ -t 0.18 -s 3 -d 4 -p cbr -e 1000 -c 1 -i 9 -a 1 -x {0.0 4.0 8 ------- null}
- -t 0.18 -s 3 -d 4 -p cbr -e 1000 -c 1 -i 9 -a 1 -x {0.0 4.0 8 ------- null}
h -t 0.18 -s 3 -d 4 -p cbr -e 1000 -c 1 -i 9 -a 1 -x {0.0 4.0 -1 ------- null}
+ -t 0.18 -s 0 -d 2 -p cbr -e 1000 -c 1 -i 47 -a 1 -x {0.0 4.0 45 ------- null}
r -t 0.182 -s 3 -d 4 -p cbr -e 1000 -c 1 -i 2 -a 1 -x {0.0 4.0 1 ------- null}
- -t 0.184 -s 0 -d 2 -p cbr -e 1000 -c 1 -i 24 -a 1 -x {0.0 4.0 23 ------- null}
h -t 0.184 -s 0 -d 2 -p cbr -e 1000 -c 1 -i 24 -a 1 -x {0.0 4.0 -1 ------- null}
+ -t 0.184 -s 0 -d 2 -p cbr -e 1000 -c 1 -i 48 -a 1 -x {0.0 4.0 46 ------- null}
r -t 0.186 -s 0 -d 2 -p cbr -e 1000 -c 1 -i 17 -a 1 -x {0.0 4.0 16 ------- null}
+ -t 0.186 -s 2 -d 3 -p cbr -e 1000 -c 1 -i 17 -a 1 -x {0.0 4.0 16 ------- null}
- -t 0.186 -s 2 -d 3 -p cbr -e 1000 -c 1 -i 17 -a 1 -x {0.0 4.0 16 ------- null}
h -t 0.186 -s 2 -d 3 -p cbr -e 1000 -c 1 -i 17 -a 1 -x {0.0 4.0 -1 ------- null}
r -t 0.188 -s 2 -d 3 -p cbr -e 1000 -c 1 -i 10 -a 1 -x {0.0 4.0 9 ------- null}
+ -t 0.188 -s 3 -d 4 -p cbr -e 1000 -c 1 -i 10 -a 1 -x {0.0 4.0 9 ------- null}
- -t 0.188 -s 3 -d 4 -p cbr -e 1000 -c 1 -i 10 -a 1 -x {0.0 4.0 9 ------- null}
h -t 0.188 -s 3 -d 4 -p cbr -e 1000 -c 1 -i 10 -a 1 -x {0.0 4.0 -1 ------- null}
+ -t 0.188 -s 0 -d 2 -p cbr -e 1000 -c 1 -i 49 -a 1 -x {0.0 4.0 47 ------- null}
r -t 0.19 -s 3 -d 4 -p cbr -e 1000 -c 1 -i 3 -a 1 -x {0.0 4.0 2 ------- null}
- -t 0.192 -s 0 -d 2 -p cbr -e 1000 -c 1 -i 25 -a 1 -x {0.0 4.0 24 ------- null}
h -t 0.192 -s 0 -d 2 -p cbr -e 1000 -c 1 -i 25 -a 1 -x {0.0 4.0 -1 ------- null}
+ -t 0.192 -s 0 -d 2 -p cbr -e 1000 -c 1 -i 50 -a 1 -x {0.0 4.0 48 ------- null}
r -t 0.194 -s 0 -d 2 -p cbr -e 1000 -c 1 -i 18 -a 1 -x {0.0 4.0 17 ------- null}
+ -t 0.194 -s 2 -d 3 -p cbr -e 1000 -c 1 -i 18 -a 1 -x {0.0 4.0 17 ------- null}
- -t 0.194 -s 2 -d 3 -p cbr -e 1000 -c 1 -i 18 -a 1 -x {0.0 4.0 17 ------- null}
h -t 0.194 -s 2 -d 3 -p cbr -e 1000 -c 1 -i 18 -a 1 -x {0.0 4.0 -1 ------- null}
r -t 0.196 -s 2 -d 3 -p cbr -e 1000 -c 1 -i 11 -a 1 -x {0.0 4.0 10 ------- null}
+ -t 0.196 -s 3 -d 4 -p cbr -e 1000 -c 1 -i 11 -a 1 -x {0.0 4.0 10 ------- null}
- -t 0.196 -s 3 -d 4 -p cbr -e 1000 -c 1 -i 11 -a 1 -x {0.0 4.0 10 ------- null}
h -t 0.196 -s 3 -d 4 -p cbr -e 1000 -c 1 -i 11 -a 1 -x {0.0 4.0 -1 ------- null}
+ -t 0.196 -s 0 -d 2 -p cbr -e 1000 -c 1 -i 51 -a 1 -x {0.0 4.0 49 ------- null}
r -t 0.198 -s 3 -d 4 -p cbr -e 1000 -c 1 -i 4 -a 1 -x {0.0 4.0 3 ------- null}
- -t 0.2 -s 0 -d 2 -p cbr -e 1000 -c 1 -i 26 -a 1 -x {0.0 4.0 25 ------- null}
h -t 0.2 -s 0 -d 2 -p cbr -e 1000 -c 1 -i 26 -a 1 -x {0.0 4.0 -1 ------- null}
+ -t 0.2 -s 0 -d 2 -p cbr -e 1000 -c 1 -i 52 -a 1 -x {0.0 4.0 50 ------- null}
r -t 0.20128 -s 5 -d 3 -p ack -e 40 -c 2 -i 39 -a 2 -x {5.0 1.0 0 ------- null}
+ -t 0.20128 -s 3 -d 2 -p ack -e 40 -c 2 -i 39 -a 2 -x {5.0 1.0 0 ------- null}
- -t 0.20128 -s 3 -d 2 -p ack -e 40 -c 2 -i 39 -a 2 -x {5.0 1.0 0 ------- null}
h -t 0.20128 -s 3 -d 2 -p ack -e 40 -c 2 -i 39 -a 2 -x {5.0 1.0 -1 ------- null}
r -t 0.202 -s 0 -d 2 -p cbr -e 1000 -c 1 -i 19 -a 1 -x {0.0 4.0 18 ------- null}
+ -t 0.202 -s 2 -d 3 -p cbr -e 1000 -c 1 -i 19 -a 1 -x {0.0 4.0 18 ------- null}
- -t 0.202 -s 2 -d 3 -p cbr -e 1000 -c 1 -i 19 -a 1 -x {0.0 4.0 18 ------- null}
h -t 0.202 -s 2 -d 3 -p cbr -e 1000 -c 1 -i 19 -a 1 -x {0.0 4.0 -1 ------- null}
r -t 0.204 -s 2 -d 3 -p cbr -e 1000 -c 1 -i 12 -a 1 -x {0.0 4.0 11 ------- null}
+ -t 0.204 -s 3 -d 4 -p cbr -e 1000 -c 1 -i 12 -a 1 -x {0.0 4.0 11 ------- null}
- -t 0.204 -s 3 -d 4 -p cbr -e 1000 -c 1 -i 12 -a 1 -x {0.0 4.0 11 ------- null}
h -t 0.204 -s 3 -d 4 -p cbr -e 1000 -c 1 -i 12 -a 1 -x {0.0 4.0 -1 ------- null}
+ -t 0.204 -s 0 -d 2 -p cbr -e 1000 -c 1 -i 53 -a 1 -x {0.0 4.0 51 ------- null}
r -t 0.206 -s 3 -d 4 -p cbr -e 1000 -c 1 -i 5 -a 1 -x {0.0 4.0 4 ------- null}
- -t 0.208 -s 0 -d 2 -p cbr -e 1000 -c 1 -i 27 -a 1 -x {0.0 4.0 26 ------- null}
h -t 0.208 -s 0 -d 2 -p cbr -e 1000 -c 1 -i 27 -a 1 -x {0.0 4.0 -1 ------- null}
+ -t 0.208 -s 0 -d 2 -p cbr -e 1000 -c 1 -i 54 -a 1 -x {0.0 4.0 52 ------- null}
r -t 0.21 -s 0 -d 2 -p cbr -e 1000 -c 1 -i 20 -a 1 -x {0.0 4.0 19 ------- null}
+ -t 0.21 -s 2 -d 3 -p cbr -e 1000 -c 1 -i 20 -a 1 -x {0.0 4.0 19 ------- null}
- -t 0.21 -s 2 -d 3 -p cbr -e 1000 -c 1 -i 20 -a 1 -x {0.0 4.0 19 ------- null}
h -t 0.21 -s 2 -d 3 -p cbr -e 1000 -c 1 -i 20 -a 1 -x {0.0 4.0 -1 ------- null}
r -t 0.212 -s 2 -d 3 -p cbr -e 1000 -c 1 -i 13 -a 1 -x {0.0 4.0 12 ------- null}
+ -t 0.212 -s 3 -d 4 -p cbr -e 1000 -c 1 -i 13 -a 1 -x {0.0 4.0 12 ------- null}
- -t 0.212 -s 3 -d 4 -p cbr -e 1000 -c 1 -i 13 -a 1 -x {0.0 4.0 12 ------- null}
h -t 0.212 -s 3 -d 4 -p cbr -e 1000 -c 1 -i 13 -a 1 -x {0.0 4.0 -1 ------- null}
+ -t 0.212 -s 0 -d 2 -p cbr -e 1000 -c 1 -i 55 -a 1 -x {0.0 4.0 53 ------- null}
r -t 0.214 -s 3 -d 4 -p cbr -e 1000 -c 1 -i 6 -a 1 -x {0.0 4.0 5 ------- null}
- -t 0.216 -s 0 -d 2 -p cbr -e 1000 -c 1 -i 28 -a 1 -x {0.0 4.0 27 ------- null}
h -t 0.216 -s 0 -d 2 -p cbr -e 1000 -c 1 -i 28 -a 1 -x {0.0 4.0 -1 ------- null}
+ -t 0.216 -s 0 -d 2 -p cbr -e 1000 -c 1 -i 56 -a 1 -x {0.0 4.0 54 ------- null}
r -t 0.218 -s 0 -d 2 -p cbr -e 1000 -c 1 -i 21 -a 1 -x {0.0 4.0 20 ------- null}
+ -t 0.218 -s 2 -d 3 -p cbr -e 1000 -c 1 -i 21 -a 1 -x {0.0 4.0 20 ------- null}
- -t 0.218 -s 2 -d 3 -p cbr -e 1000 -c 1 -i 21 -a 1 -x {0.0 4.0 20 ------- null}
h -t 0.218 -s 2 -d 3 -p cbr -e 1000 -c 1 -i 21 -a 1 -x {0.0 4.0 -1 ------- null}
r -t 0.22 -s 2 -d 3 -p cbr -e 1000 -c 1 -i 14 -a 1 -x {0.0 4.0 13 ------- null}
+ -t 0.22 -s 3 -d 4 -p cbr -e 1000 -c 1 -i 14 -a 1 -x {0.0 4.0 13 ------- null}
- -t 0.22 -s 3 -d 4 -p cbr -e 1000 -c 1 -i 14 -a 1 -x {0.0 4.0 13 ------- null}
h -t 0.22 -s 3 -d 4 -p cbr -e 1000 -c 1 -i 14 -a 1 -x {0.0 4.0 -1 ------- null}
+ -t 0.22 -s 0 -d 2 -p cbr -e 1000 -c 1 -i 57 -a 1 -x {0.0 4.0 55 ------- null}
r -t 0.222 -s 3 -d 4 -p cbr -e 1000 -c 1 -i 7 -a 1 -x {0.0 4.0 6 ------- null}
- -t 0.224 -s 0 -d 2 -p cbr -e 1000 -c 1 -i 29 -a 1 -x {0.0 4.0 28 ------- null}
h -t 0.224 -s 0 -d 2 -p cbr -e 1000 -c 1 -i 29 -a 1 -x {0.0 4.0 -1 ------- null}
+ -t 0.224 -s 0 -d 2 -p cbr -e 1000 -c 1 -i 58 -a 1 -x {0.0 4.0 56 ------- null}
r -t 0.226 -s 0 -d 2 -p cbr -e 1000 -c 1 -i 22 -a 1 -x {0.0 4.0 21 ------- null}
+ -t 0.226 -s 2 -d 3 -p cbr -e 1000 -c 1 -i 22 -a 1 -x {0.0 4.0 21 ------- null}
- -t 0.226 -s 2 -d 3 -p cbr -e 1000 -c 1 -i 22 -a 1 -x {0.0 4.0 21 ------- null}
h -t 0.226 -s 2 -d 3 -p cbr -e 1000 -c 1 -i 22 -a 1 -x {0.0 4.0 -1 ------- null}
r -t 0.228 -s 2 -d 3 -p cbr -e 1000 -c 1 -i 15 -a 1 -x {0.0 4.0 14 ------- null}
+ -t 0.228 -s 3 -d 4 -p cbr -e 1000 -c 1 -i 15 -a 1 -x {0.0 4.0 14 ------- null}
- -t 0.228 -s 3 -d 4 -p cbr -e 1000 -c 1 -i 15 -a 1 -x {0.0 4.0 14 ------- null}
h -t 0.228 -s 3 -d 4 -p cbr -e 1000 -c 1 -i 15 -a 1 -x {0.0 4.0 -1 ------- null}
+ -t 0.228 -s 0 -d 2 -p cbr -e 1000 -c 1 -i 59 -a 1 -x {0.0 4.0 57 ------- null}
r -t 0.23 -s 3 -d 4 -p cbr -e 1000 -c 1 -i 8 -a 1 -x {0.0 4.0 7 ------- null}
- -t 0.232 -s 0 -d 2 -p cbr -e 1000 -c 1 -i 30 -a 1 -x {0.0 4.0 29 ------- null}
h -t 0.232 -s 0 -d 2 -p cbr -e 1000 -c 1 -i 30 -a 1 -x {0.0 4.0 -1 ------- null}
+ -t 0.232 -s 0 -d 2 -p cbr -e 1000 -c 1 -i 60 -a 1 -x {0.0 4.0 58 ------- null}
r -t 0.234 -s 0 -d 2 -p cbr -e 1000 -c 1 -i 23 -a 1 -x {0.0 4.0 22 ------- null}
+ -t 0.234 -s 2 -d 3 -p cbr -e 1000 -c 1 -i 23 -a 1 -x {0.0 4.0 22 ------- null}
- -t 0.234 -s 2 -d 3 -p cbr -e 1000 -c 1 -i 23 -a 1 -x {0.0 4.0 22 ------- null}
h -t 0.234 -s 2 -d 3 -p cbr -e 1000 -c 1 -i 23 -a 1 -x {0.0 4.0 -1 ------- null}
r -t 0.236 -s 2 -d 3 -p cbr -e 1000 -c 1 -i 16 -a 1 -x {0.0 4.0 15 ------- null}
+ -t 0.236 -s 3 -d 4 -p cbr -e 1000 -c 1 -i 16 -a 1 -x {0.0 4.0 15 ------- null}
- -t 0.236 -s 3 -d 4 -p cbr -e 1000 -c 1 -i 16 -a 1 -x {0.0 4.0 15 ------- null}
h -t 0.236 -s 3 -d 4 -p cbr -e 1000 -c 1 -i 16 -a 1 -x {0.0 4.0 -1 ------- null}
+ -t 0.236 -s 0 -d 2 -p cbr -e 1000 -c 1 -i 61 -a 1 -x {0.0 4.0 59 ------- null}
r -t 0.238 -s 3 -d 4 -p cbr -e 1000 -c 1 -i 9 -a 1 -x {0.0 4.0 8 ------- null}
- -t 0.24 -s 0 -d 2 -p cbr -e 1000 -c 1 -i 31 -a 1 -x {0.0 4.0 30 ------- null}
h -t 0.24 -s 0 -d 2 -p cbr -e 1000 -c 1 -i 31 -a 1 -x {0.0 4.0 -1 ------- null}
+ -t 0.24 -s 0 -d 2 -p cbr -e 1000 -c 1 -i 62 -a 1 -x {0.0 4.0 60 ------- null}
r -t 0.242 -s 0 -d 2 -p cbr -e 1000 -c 1 -i 24 -a 1 -x {0.0 4.0 23 ------- null}
+ -t 0.242 -s 2 -d 3 -p cbr -e 1000 -c 1 -i 24 -a 1 -x {0.0 4.0 23 ------- null}
- -t 0.242 -s 2 -d 3 -p cbr -e 1000 -c 1 -i 24 -a 1 -x {0.0 4.0 23 ------- null}
h -t 0.242 -s 2 -d 3 -p cbr -e 1000 -c 1 -i 24 -a 1 -x {0.0 4.0 -1 ------- null}
r -t 0.244 -s 2 -d 3 -p cbr -e 1000 -c 1 -i 17 -a 1 -x {0.0 4.0 16 ------- null}
+ -t 0.244 -s 3 -d 4 -p cbr -e 1000 -c 1 -i 17 -a 1 -x {0.0 4.0 16 ------- null}
- -t 0.244 -s 3 -d 4 -p cbr -e 1000 -c 1 -i 17 -a 1 -x {0.0 4.0 16 ------- null}
h -t 0.244 -s 3 -d 4 -p cbr -e 1000 -c 1 -i 17 -a 1 -x {0.0 4.0 -1 ------- null}
+ -t 0.244 -s 0 -d 2 -p cbr -e 1000 -c 1 -i 63 -a 1 -x {0.0 4.0 61 ------- null}
r -t 0.246 -s 3 -d 4 -p cbr -e 1000 -c 1 -i 10 -a 1 -x {0.0 4.0 9 ------- null}
- -t 0.248 -s 0 -d 2 -p cbr -e 1000 -c 1 -i 32 -a 1 -x {0.0 4.0 31 ------- null}
h -t 0.248 -s 0 -d 2 -p cbr -e 1000 -c 1 -i 32 -a 1 -x {0.0 4.0 -1 ------- null}
+ -t 0.248 -s 0 -d 2 -p cbr -e 1000 -c 1 -i 64 -a 1 -x {0.0 4.0 62 ------- null}
r -t 0.25 -s 0 -d 2 -p cbr -e 1000 -c 1 -i 25 -a 1 -x {0.0 4.0 24 ------- null}
+ -t 0.25 -s 2 -d 3 -p cbr -e 1000 -c 1 -i 25 -a 1 -x {0.0 4.0 24 ------- null}
- -t 0.25 -s 2 -d 3 -p cbr -e 1000 -c 1 -i 25 -a 1 -x {0.0 4.0 24 ------- null}
h -t 0.25 -s 2 -d 3 -p cbr -e 1000 -c 1 -i 25 -a 1 -x {0.0 4.0 -1 ------- null}
r -t 0.2516 -s 3 -d 2 -p ack -e 40 -c 2 -i 39 -a 2 -x {5.0 1.0 0 ------- null}
+ -t 0.2516 -s 2 -d 1 -p ack -e 40 -c 2 -i 39 -a 2 -x {5.0 1.0 0 ------- null}
- -t 0.2516 -s 2 -d 1 -p ack -e 40 -c 2 -i 39 -a 2 -x {5.0 1.0 0 ------- null}
h -t 0.2516 -s 2 -d 1 -p ack -e 40 -c 2 -i 39 -a 2 -x {5.0 1.0 -1 ------- null}
r -t 0.252 -s 2 -d 3 -p cbr -e 1000 -c 1 -i 18 -a 1 -x {0.0 4.0 17 ------- null}
+ -t 0.252 -s 3 -d 4 -p cbr -e 1000 -c 1 -i 18 -a 1 -x {0.0 4.0 17 ------- null}
- -t 0.252 -s 3 -d 4 -p cbr -e 1000 -c 1 -i 18 -a 1 -x {0.0 4.0 17 ------- null}
h -t 0.252 -s 3 -d 4 -p cbr -e 1000 -c 1 -i 18 -a 1 -x {0.0 4.0 -1 ------- null}
+ -t 0.252 -s 0 -d 2 -p cbr -e 1000 -c 1 -i 65 -a 1 -x {0.0 4.0 63 ------- null}
r -t 0.254 -s 3 -d 4 -p cbr -e 1000 -c 1 -i 11 -a 1 -x {0.0 4.0 10 ------- null}
- -t 0.256 -s 0 -d 2 -p cbr -e 1000 -c 1 -i 33 -a 1 -x {0.0 4.0 32 ------- null}
h -t 0.256 -s 0 -d 2 -p cbr -e 1000 -c 1 -i 33 -a 1 -x {0.0 4.0 -1 ------- null}
+ -t 0.256 -s 0 -d 2 -p cbr -e 1000 -c 1 -i 66 -a 1 -x {0.0 4.0 64 ------- null}
r -t 0.258 -s 0 -d 2 -p cbr -e 1000 -c 1 -i 26 -a 1 -x {0.0 4.0 25 ------- null}
+ -t 0.258 -s 2 -d 3 -p cbr -e 1000 -c 1 -i 26 -a 1 -x {0.0 4.0 25 ------- null}
- -t 0.258 -s 2 -d 3 -p cbr -e 1000 -c 1 -i 26 -a 1 -x {0.0 4.0 25 ------- null}
h -t 0.258 -s 2 -d 3 -p cbr -e 1000 -c 1 -i 26 -a 1 -x {0.0 4.0 -1 ------- null}
r -t 0.26 -s 2 -d 3 -p cbr -e 1000 -c 1 -i 19 -a 1 -x {0.0 4.0 18 ------- null}
+ -t 0.26 -s 3 -d 4 -p cbr -e 1000 -c 1 -i 19 -a 1 -x {0.0 4.0 18 ------- null}
- -t 0.26 -s 3 -d 4 -p cbr -e 1000 -c 1 -i 19 -a 1 -x {0.0 4.0 18 ------- null}
h -t 0.26 -s 3 -d 4 -p cbr -e 1000 -c 1 -i 19 -a 1 -x {0.0 4.0 -1 ------- null}
+ -t 0.26 -s 0 -d 2 -p cbr -e 1000 -c 1 -i 67 -a 1 -x {0.0 4.0 65 ------- null}
r -t 0.262 -s 3 -d 4 -p cbr -e 1000 -c 1 -i 12 -a 1 -x {0.0 4.0 11 ------- null}
- -t 0.264 -s 0 -d 2 -p cbr -e 1000 -c 1 -i 34 -a 1 -x {0.0 4.0 33 ------- null}
h -t 0.264 -s 0 -d 2 -p cbr -e 1000 -c 1 -i 34 -a 1 -x {0.0 4.0 -1 ------- null}
+ -t 0.264 -s 0 -d 2 -p cbr -e 1000 -c 1 -i 68 -a 1 -x {0.0 4.0 66 ------- null}
r -t 0.266 -s 0 -d 2 -p cbr -e 1000 -c 1 -i 27 -a 1 -x {0.0 4.0 26 ------- null}
+ -t 0.266 -s 2 -d 3 -p cbr -e 1000 -c 1 -i 27 -a 1 -x {0.0 4.0 26 ------- null}
- -t 0.266 -s 2 -d 3 -p cbr -e 1000 -c 1 -i 27 -a 1 -x {0.0 4.0 26 ------- null}
h -t 0.266 -s 2 -d 3 -p cbr -e 1000 -c 1 -i 27 -a 1 -x {0.0 4.0 -1 ------- null}
r -t 0.268 -s 2 -d 3 -p cbr -e 1000 -c 1 -i 20 -a 1 -x {0.0 4.0 19 ------- null}
+ -t 0.268 -s 3 -d 4 -p cbr -e 1000 -c 1 -i 20 -a 1 -x {0.0 4.0 19 ------- null}
- -t 0.268 -s 3 -d 4 -p cbr -e 1000 -c 1 -i 20 -a 1 -x {0.0 4.0 19 ------- null}
h -t 0.268 -s 3 -d 4 -p cbr -e 1000 -c 1 -i 20 -a 1 -x {0.0 4.0 -1 ------- null}
+ -t 0.268 -s 0 -d 2 -p cbr -e 1000 -c 1 -i 69 -a 1 -x {0.0 4.0 67 ------- null}
r -t 0.27 -s 3 -d 4 -p cbr -e 1000 -c 1 -i 13 -a 1 -x {0.0 4.0 12 ------- null}
- -t 0.272 -s 0 -d 2 -p cbr -e 1000 -c 1 -i 35 -a 1 -x {0.0 4.0 34 ------- null}
h -t 0.272 -s 0 -d 2 -p cbr -e 1000 -c 1 -i 35 -a 1 -x {0.0 4.0 -1 ------- null}
+ -t 0.272 -s 0 -d 2 -p cbr -e 1000 -c 1 -i 70 -a 1 -x {0.0 4.0 68 ------- null}