+ 0 0 2 cbr 1000 ------- 1 0.0 4.0 0 0
- 0 0 2 cbr 1000 ------- 1 0.0 4.0 0 0
+ 0 1 2 tcp 40 ------- 2 1.0 5.0 0 1
- 0 1 2 tcp 40 ------- 2 1.0 5.0 0 1
+ 0.004 0 2 cbr 1000 ------- 1 0.0 4.0 1 2
- 0.008 0 2 cbr 1000 ------- 1 0.0 4.0 1 2
+ 0.008 0 2 cbr 1000 ------- 1 0.0 4.0 2 3
+ 0.012 0 2 cbr 1000 ------- 1 0.0 4.0 3 4
- 0.016 0 2 cbr 1000 ------- 1 0.0 4.0 2 3
+ 0.016 0 2 cbr 1000 ------- 1 0.0 4.0 4 5
+ 0.02 0 2 cbr 1000 ------- 1 0.0 4.0 5 6
- 0.024 0 2 cbr 1000 ------- 1 0.0 4.0 3 4
+ 0.024 0 2 cbr 1000 ------- 1 0.0 4.0 6 7
+ 0.028 0 2 cbr 1000 ------- 1 0.0 4.0 7 8
- 0.032 0 2 cbr 1000 ------- 1 0.0 4.0 4 5
+ 0.032 0 2 cbr 1000 ------- 1 0.0 4.0 8 9
+ 0.036 0 2 cbr 1000 ------- 1 0.0 4.0 9 10
- 0.04 0 2 cbr 1000 ------- 1 0.0 4.0 5 6
+ 0.04 0 2 cbr 1000 ------- 1 0.0 4.0 10 11
+ 0.044 0 2 cbr 1000 ------- 1 0.0 4.0 11 12
- 0.048 0 2 cbr 1000 ------- 1 0.0 4.0 6 7
+ 0.048 0 2 cbr 1000 ------- 1 0.0 4.0 12 13
r 0.05032 1 2 tcp 40 ------- 2 1.0 5.0 0 1
+ 0.05032 2 3 tcp 40 ------- 2 1.0 5.0 0 1
- 0.05032 2 3 tcp 40 ------- 2 1.0 5.0 0 1
+ 0.052 0 2 cbr 1000 ------- 1 0.0 4.0 13 14
- 0.056 0 2 cbr 1000 ------- 1 0.0 4.0 7 8
+ 0.056 0 2 cbr 1000 ------- 1 0.0 4.0 14 15
r 0.058 0 2 cbr 1000 ------- 1 0.0 4.0 0 0
+ 0.058 2 3 cbr 1000 ------- 1 0.0 4.0 0 0
- 0.058 2 3 cbr 1000 ------- 1 0.0 4.0 0 0
+ 0.06 0 2 cbr 1000 ------- 1 0.0 4.0 15 16
- 0.064 0 2 cbr 1000 ------- 1 0.0 4.0 8 9
+ 0.064 0 2 cbr 1000 ------- 1 0.0 4.0 16 17
r 0.066 0 2 cbr 1000 ------- 1 0.0 4.0 1 2
+ 0.066 2 3 cbr 1000 ------- 1 0.0 4.0 1 2
- 0.066 2 3 cbr 1000 ------- 1 0.0 4.0 1 2
+ 0.068 0 2 cbr 1000 ------- 1 0.0 4.0 17 18
- 0.072 0 2 cbr 1000 ------- 1 0.0 4.0 9 10
+ 0.072 0 2 cbr 1000 ------- 1 0.0 4.0 18 19
r 0.074 0 2 cbr 1000 ------- 1 0.0 4.0 2 3
+ 0.074 2 3 cbr 1000 ------- 1 0.0 4.0 2 3
- 0.074 2 3 cbr 1000 ------- 1 0.0 4.0 2 3
+ 0.076 0 2 cbr 1000 ------- 1 0.0 4.0 19 20
- 0.08 0 2 cbr 1000 ------- 1 0.0 4.0 10 11
+ 0.08 0 2 cbr 1000 ------- 1 0.0 4.0 20 21
r 0.082 0 2 cbr 1000 ------- 1 0.0 4.0 3 4
+ 0.082 2 3 cbr 1000 ------- 1 0.0 4.0 3 4
- 0.082 2 3 cbr 1000 ------- 1 0.0 4.0 3 4
+ 0.084 0 2 cbr 1000 ------- 1 0.0 4.0 21 22
- 0.088 0 2 cbr 1000 ------- 1 0.0 4.0 11 12
+ 0.088 0 2 cbr 1000 ------- 1 0.0 4.0 22 23
r 0.09 0 2 cbr 1000 ------- 1 0.0 4.0 4 5
+ 0.09 2 3 cbr 1000 ------- 1 0.0 4.0 4 5
- 0.09 2 3 cbr 1000 ------- 1 0.0 4.0 4 5
+ 0.092 0 2 cbr 1000 ------- 1 0.0 4.0 23 24
- 0.096 0 2 cbr 1000 ------- 1 0.0 4.0 12 13
+ 0.096 0 2 cbr 1000 ------- 1 0.0 4.0 24 25
r 0.098 0 2 cbr 1000 ------- 1 0.0 4.0 5 6
+ 0.098 2 3 cbr 1000 ------- 1 0.0 4.0 5 6
- 0.098 2 3 cbr 1000 ------- 1 0.0 4.0 5 6
+ 0.1 0 2 cbr 1000 ------- 1 0.0 4.0 25 26
r 0.10064 2 3 tcp 40 ------- 2 1.0 5.0 0 1
+ 0.10064 3 5 tcp 40 ------- 2 1.0 5.0 0 1
- 0.10064 3 5 tcp 40 ------- 2 1.0 5.0 0 1
- 0.104 0 2 cbr 1000 ------- 1 0.0 4.0 13 14
+ 0.104 0 2 cbr 1000 ------- 1 0.0 4.0 26 27
r 0.106 0 2 cbr 1000 ------- 1 0.0 4.0 6 7
+ 0.106 2 3 cbr 1000 ------- 1 0.0 4.0 6 7
- 0.106 2 3 cbr 1000 ------- 1 0.0 4.0 6 7
+ 0.108 0 2 cbr 1000 ------- 1 0.0 4.0 27 28
- 0.112 0 2 cbr 1000 ------- 1 0.0 4.0 14 15
+ 0.112 0 2 cbr 1000 ------- 1 0.0 4.0 28 29
r 0.114 0 2 cbr 1000 ------- 1 0.0 4.0 7 8
+ 0.114 2 3 cbr 1000 ------- 1 0.0 4.0 7 8
- 0.114 2 3 cbr 1000 ------- 1 0.0 4.0 7 8
r 0.116 2 3 cbr 1000 ------- 1 0.0 4.0 0 0
+ 0.116 3 4 cbr 1000 ------- 1 0.0 4.0 0 0
- 0.116 3 4 cbr 1000 ------- 1 0.0 4.0 0 0
+ 0.116 0 2 cbr 1000 ------- 1 0.0 4.0 29 30
- 0.12 0 2 cbr 1000 ------- 1 0.0 4.0 15 16
+ 0.12 0 2 cbr 1000 ------- 1 0.0 4.0 30 31
r 0.122 0 2 cbr 1000 ------- 1 0.0 4.0 8 9
+ 0.122 2 3 cbr 1000 ------- 1 0.0 4.0 8 9
- 0.122 2 3 cbr 1000 ------- 1 0.0 4.0 8 9
r 0.124 2 3 cbr 1000 ------- 1 0.0 4.0 1 2
+ 0.124 3 4 cbr 1000 ------- 1 0.0 4.0 1 2
- 0.124 3 4 cbr 1000 ------- 1 0.0 4.0 1 2
+ 0.124 0 2 cbr 1000 ------- 1 0.0 4.0 31 32
- 0.128 0 2 cbr 1000 ------- 1 0.0 4.0 16 17
+ 0.128 0 2 cbr 1000 ------- 1 0.0 4.0 32 33
r 0.13 0 2 cbr 1000 ------- 1 0.0 4.0 9 10
+ 0.13 2 3 cbr 1000 ------- 1 0.0 4.0 9 10
- 0.13 2 3 cbr 1000 ------- 1 0.0 4.0 9 10
r 0.132 2 3 cbr 1000 ------- 1 0.0 4.0 2 3
+ 0.132 3 4 cbr 1000 ------- 1 0.0 4.0 2 3
- 0.132 3 4 cbr 1000 ------- 1 0.0 4.0 2 3
+ 0.132 0 2 cbr 1000 ------- 1 0.0 4.0 33 34
- 0.136 0 2 cbr 1000 ------- 1 0.0 4.0 17 18
+ 0.136 0 2 cbr 1000 ------- 1 0.0 4.0 34 35
r 0.138 0 2 cbr 1000 ------- 1 0.0 4.0 10 11
+ 0.138 2 3 cbr 1000 ------- 1 0.0 4.0 10 11
- 0.138 2 3 cbr 1000 ------- 1 0.0 4.0 10 11
r 0.14 2 3 cbr 1000 ------- 1 0.0 4.0 3 4
+ 0.14 3 4 cbr 1000 ------- 1 0.0 4.0 3 4
- 0.14 3 4 cbr 1000 ------- 1 0.0 4.0 3 4
+ 0.14 0 2 cbr 1000 ------- 1 0.0 4.0 35 36
- 0.144 0 2 cbr 1000 ------- 1 0.0 4.0 18 19
+ 0.144 0 2 cbr 1000 ------- 1 0.0 4.0 36 37
r 0.146 0 2 cbr 1000 ------- 1 0.0 4.0 11 12
+ 0.146 2 3 cbr 1000 ------- 1 0.0 4.0 11 12
- 0.146 2 3 cbr 1000 ------- 1 0.0 4.0 11 12
r 0.148 2 3 cbr 1000 ------- 1 0.0 4.0 4 5
+ 0.148 3 4 cbr 1000 ------- 1 0.0 4.0 4 5
- 0.148 3 4 cbr 1000 ------- 1 0.0 4.0 4 5
+ 0.148 0 2 cbr 1000 ------- 1 0.0 4.0 37 38
r 0.15096 3 5 tcp 40 ------- 2 1.0 5.0 0 1
+ 0.15096 5 3 ack 40 ------- 2 5.0 1.0 0 39
- 0.15096 5 3 ack 40 ------- 2 5.0 1.0 0 39
- 0.152 0 2 cbr 1000 ------- 1 0.0 4.0 19 20
+ 0.152 0 2 cbr 1000 ------- 1 0.0 4.0 38 40
r 0.154 0 2 cbr 1000 ------- 1 0.0 4.0 12 13
+ 0.154 2 3 cbr 1000 ------- 1 0.0 4.0 12 13
- 0.154 2 3 cbr 1000 ------- 1 0.0 4.0 12 13
r 0.156 2 3 cbr 1000 ------- 1 0.0 4.0 5 6
+ 0.156 3 4 cbr 1000 ------- 1 0.0 4.0 5 6
- 0.156 3 4 cbr 1000 ------- 1 0.0 4.0 5 6
+ 0.156 0 2 cbr 1000 ------- 1 0.0 4.0 39 41
- 0.16 0 2 cbr 1000 ------- 1 0.0 4.0 20 21
+ 0.16 0 2 cbr 1000 ------- 1 0.0 4.0 40 42
r 0.162 0 2 cbr 1000 ------- 1 0.0 4.0 13 14
+ 0.162 2 3 cbr 1000 ------- 1 0.0 4.0 13 14
- 0.162 2 3 cbr 1000 ------- 1 0.0 4.0 13 14
r 0.164 2 3 cbr 1000 ------- 1 0.0 4.0 6 7
+ 0.164 3 4 cbr 1000 ------- 1 0.0 4.0 6 7
- 0.164 3 4 cbr 1000 ------- 1 0.0 4.0 6 7
+ 0.164 0 2 cbr 1000 ------- 1 0.0 4.0 41 43
- 0.168 0 2 cbr 1000 ------- 1 0.0 4.0 21 22
+ 0.168 0 2 cbr 1000 ------- 1 0.0 4.0 42 44
r 0.17 0 2 cbr 1000 ------- 1 0.0 4.0 14 15
+ 0.17 2 3 cbr 1000 ------- 1 0.0 4.0 14 15
- 0.17 2 3 cbr 1000 ------- 1 0.0 4.0 14 15
r 0.172 2 3 cbr 1000 ------- 1 0.0 4.0 7 8
+ 0.172 3 4 cbr 1000 ------- 1 0.0 4.0 7 8
- 0.172 3 4 cbr 1000 ------- 1 0.0 4.0 7 8
+ 0.172 0 2 cbr 1000 ------- 1 0.0 4.0 43 45
r 0.174 3 4 cbr 1000 ------- 1 0.0 4.0 0 0
- 0.176 0 2 cbr 1000 ------- 1 0.0 4.0 22 23
+ 0.176 0 2 cbr 1000 ------- 1 0.0 4.0 44 46
r 0.178 0 2 cbr 1000 ------- 1 0.0 4.0 15 16
+ 0.178 2 3 cbr 1000 ------- 1 0.0 4.0 15 16
- 0.178 2 3 cbr 1000 ------- 1 0.0 4.0 15 16
r 0.18 2 3 cbr 1000 ------- 1 0.0 4.0 8 9
+ 0.18 3 4 cbr 1000 ------- 1 0.0 4.0 8 9
- 0.18 3 4 cbr 1000 ------- 1 0.0 4.0 8 9
+ 0.18 0 2 cbr 1000 ------- 1 0.0 4.0 45 47
r 0.182 3 4 cbr 1000 ------- 1 0.0 4.0 1 2
- 0.184 0 2 cbr 1000 ------- 1 0.0 4.0 23 24
+ 0.184 0 2 cbr 1000 ------- 1 0.0 4.0 46 48
r 0.186 0 2 cbr 1000 ------- 1 0.0 4.0 16 17
+ 0.186 2 3 cbr 1000 ------- 1 0.0 4.0 16 17
- 0.186 2 3 cbr 1000 ------- 1 0.0 4.0 16 17
r 0.188 2 3 cbr 1000 ------- 1 0.0 4.0 9 10
+ 0.188 3 4 cbr 1000 ------- 1 0.0 4.0 9 10
- 0.188 3 4 cbr 1000 ------- 1 0.0 4.0 9 10
+ 0.188 0 2 cbr 1000 ------- 1 0.0 4.0 47 49
r 0.19 3 4 cbr 1000 ------- 1 0.0 4.0 2 3
- 0.192 0 2 cbr 1000 ------- 1 0.0 4.0 24 25
+ 0.192 0 2 cbr 1000 ------- 1 0.0 4.0 48 50
r 0.194 0 2 cbr 1000 ------- 1 0.0 4.0 17 18
+ 0.194 2 3 cbr 1000 ------- 1 0.0 4.0 17 18
- 0.194 2 3 cbr 1000 ------- 1 0.0 4.0 17 18
r 0.196 2 3 cbr 1000 ------- 1 0.0 4.0 10 11
+ 0.196 3 4 cbr 1000 ------- 1 0.0 4.0 10 11
- 0.196 3 4 cbr 1000 ------- 1 0.0 4.0 10 11
+ 0.196 0 2 cbr 1000 ------- 1 0.0 4.0 49 51
r 0.198 3 4 cbr 1000 ------- 1 0.0 4.0 3 4
- 0.2 0 2 cbr 1000 ------- 1 0.0 4.0 25 26
+ 0.2 0 2 cbr 1000 ------- 1 0.0 4.0 50 52
r 0.20128 5 3 ack 40 ------- 2 5.0 1.0 0 39
+ 0.20128 3 2 ack 40 ------- 2 5.0 1.0 0 39
- 0.20128 3 2 ack 40 ------- 2 5.0 1.0 0 39
r 0.202 0 2 cbr 1000 ------- 1 0.0 4.0 18 19
+ 0.202 2 3 cbr 1000 ------- 1 0.0 4.0 18 19
- 0.202 2 3 cbr 1000 ------- 1 0.0 4.0 18 19
r 0.204 2 3 cbr 1000 ------- 1 0.0 4.0 11 12
+ 0.204 3 4 cbr 1000 ------- 1 0.0 4.0 11 12
- 0.204 3 4 cbr 1000 ------- 1 0.0 4.0 11 12
+ 0.204 0 2 cbr 1000 ------- 1 0.0 4.0 51 53
r 0.206 3 4 cbr 1000 ------- 1 0.0 4.0 4 5
- 0.208 0 2 cbr 1000 ------- 1 0.0 4.0 26 27
+ 0.208 0 2 cbr 1000 ------- 1 0.0 4.0 52 54
r 0.21 0 2 cbr 1000 ------- 1 0.0 4.0 19 20
+ 0.21 2 3 cbr 1000 ------- 1 0.0 4.0 19 20
- 0.21 2 3 cbr 1000 ------- 1 0.0 4.0 19 20
r 0.212 2 3 cbr 1000 ------- 1 0.0 4.0 12 13
+ 0.212 3 4 cbr 1000 ------- 1 0.0 4.0 12 13
- 0.212 3 4 cbr 1000 ------- 1 0.0 4.0 12 13
+ 0.212 0 2 cbr 1000 ------- 1 0.0 4.0 53 55
r 0.214 3 4 cbr 1000 ------- 1 0.0 4.0 5 6
- 0.216 0 2 cbr 1000 ------- 1 0.0 4.0 27 28
+ 0.216 0 2 cbr 1000 ------- 1 0.0 4.0 54 56
r 0.218 0 2 cbr 1000 ------- 1 0.0 4.0 20 21
+ 0.218 2 3 cbr 1000 ------- 1 0.0 4.0 20 21
- 0.218 2 3 cbr 1000 ------- 1 0.0 4.0 20 21
r 0.22 2 3 cbr 1000 ------- 1 0.0 4.0 13 14
+ 0.22 3 4 cbr 1000 ------- 1 0.0 4.0 13 14
- 0.22 3 4 cbr 1000 ------- 1 0.0 4.0 13 14
+ 0.22 0 2 cbr 1000 ------- 1 0.0 4.0 55 57
r 0.222 3 4 cbr 1000 ------- 1 0.0 4.0 6 7
- 0.224 0 2 cbr 1000 ------- 1 0.0 4.0 28 29
+ 0.224 0 2 cbr 1000 ------- 1 0.0 4.0 56 58
r 0.226 0 2 cbr 1000 ------- 1 0.0 4.0 21 22
+ 0.226 2 3 cbr 1000 ------- 1 0.0 4.0 21 22
- 0.226 2 3 cbr 1000 ------- 1 0.0 4.0 21 22
r 0.228 2 3 cbr 1000 ------- 1 0.0 4.0 14 15
+ 0.228 3 4 cbr 1000 ------- 1 0.0 4.0 14 15
- 0.228 3 4 cbr 1000 ------- 1 0.0 4.0 14 15
+ 0.228 0 2 cbr 1000 ------- 1 0.0 4.0 57 59
r 0.23 3 4 cbr 1000 ------- 1 0.0 4.0 7 8
- 0.232 0 2 cbr 1000 ------- 1 0.0 4.0 29 30
+ 0.232 0 2 cbr 1000 ------- 1 0.0 4.0 58 60
r 0.234 0 2 cbr 1000 ------- 1 0.0 4.0 22 23
+ 0.234 2 3 cbr 1000 ------- 1 0.0 4.0 22 23
- 0.234 2 3 cbr 1000 ------- 1 0.0 4.0 22 23
r 0.236 2 3 cbr 1000 ------- 1 0.0 4.0 15 16
+ 0.236 3 4 cbr 1000 ------- 1 0.0 4.0 15 16
- 0.236 3 4 cbr 1000 ------- 1 0.0 4.0 15 16
+ 0.236 0 2 cbr 1000 ------- 1 0.0 4.0 59 61
r 0.238 3 4 cbr 1000 ------- 1 0.0 4.0 8 9
- 0.24 0 2 cbr 1000 ------- 1 0.0 4.0 30 31
+ 0.24 0 2 cbr 1000 ------- 1 0.0 4.0 60 62
r 0.242 0 2 cbr 1000 ------- 1 0.0 4.0 23 24
+ 0.242 2 3 cbr 1000 ------- 1 0.0 4.0 23 24
- 0.242 2 3 cbr 1000 ------- 1 0.0 4.0 23 24
r 0.244 2 3 cbr 1000 ------- 1 0.0 4.0 16 17
+ 0.244 3 4 cbr 1000 ------- 1 0.0 4.0 16 17
- 0.244 3 4 cbr 1000 ------- 1 0.0 4.0 16 17
+ 0.244 0 2 cbr 1000 ------- 1 0.0 4.0 61 63
r 0.246 3 4 cbr 1000 ------- 1 0.0 4.0 9 10
- 0.248 0 2 cbr 1000 ------- 1 0.0 4.0 31 32
+ 0.248 0 2 cbr 1000 ------- 1 0.0 4.0 62 64
r 0.25 0 2 cbr 1000 ------- 1 0.0 4.0 24 25
+ 0.25 2 3 cbr 1000 ------- 1 0.0 4.0 24 25
- 0.25 2 3 cbr 1000 ------- 1 0.0 4.0 24 25
r 0.2516 3 2 ack 40 ------- 2 5.0 1.0 0 39
+ 0.2516 2 1 ack 40 ------- 2 5.0 1.0 0 39
- 0.2516 2 1 ack 40 ------- 2 5.0 1.0 0 39
r 0.252 2 3 cbr 1000 ------- 1 0.0 4.0 17 18
+ 0.252 3 4 cbr 1000 ------- 1 0.0 4.0 17 18
- 0.252 3 4 cbr 1000 ------- 1 0.0 4.0 17 18
+ 0.252 0 2 cbr 1000 ------- 1 0.0 4.0 63 65
r 0.254 3 4 cbr 1000 ------- 1 0.0 4.0 10 11
- 0.256 0 2 cbr 1000 ------- 1 0.0 4.0 32 33
+ 0.256 0 2 cbr 1000 ------- 1 0.0 4.0 64 66
r 0.258 0 2 cbr 1000 ------- 1 0.0 4.0 25 26
+ 0.258 2 3 cbr 1000 ------- 1 0.0 4.0 25 26
- 0.258 2 3 cbr 1000 ------- 1 0.0 4.0 25 26
r 0.26 2 3 cbr 1000 ------- 1 0.0 4.0 18 19
+ 0.26 3 4 cbr 1000 ------- 1 0.0 4.0 18 19
- 0.26 3 4 cbr 1000 ------- 1 0.0 4.0 18 19
+ 0.26 0 2 cbr 1000 ------- 1 0.0 4.0 65 67
r 0.262 3 4 cbr 1000 ------- 1 0.0 4.0 11 12
- 0.264 0 2 cbr 1000 ------- 1 0.0 4.0 33 34
+ 0.264 0 2 cbr 1000 ------- 1 0.0 4.0 66 68
r 0.266 0 2 cbr 1000 ------- 1 0.0 4.0 26 27
+ 0.266 2 3 cbr 1000 ------- 1 0.0 4.0 26 27
- 0.266 2 3 cbr 1000 ------- 1 0.0 4.0 26 27
r 0.268 2 3 cbr 1000 ------- 1 0.0 4.0 19 20
+ 0.268 3 4 cbr 1000 ------- 1 0.0 4.0 19 20
- 0.268 3 4 cbr 1000 ------- 1 0.0 4.0 19 20
+ 0.268 0 2 cbr 1000 ------- 1 0.0 4.0 67 69
r 0.27 3 4 cbr 1000 ------- 1 0.0 4.0 12 13
- 0.272 0 2 cbr 1000 ------- 1 0.0 4.0 34 35
+ 0.272 0 2 cbr 1000 ------- 1 0.0 4.0 68 70
r 0.274 0 2 cbr 1000 ------- 1 0.0 4.0 27 28
+ 0.274 2 3 cbr 1000 ------- 1 0.0 4.0 27 28
- 0.274 2 3 cbr 1000 ------- 1 0.0 4.0 27 28
r 0.276 2 3 cbr 1000 ------- 1 0.0 4.0 20 21
+ 0.276 3 4 cbr 1000 ------- 1 0.0 4.0 20 21
- 0.276 3 4 cbr 1000 ------- 1 0.0 4.0 20 21
+ 0.276 0 2 cbr 1000 ------- 1 0.0 4.0 69 71
r 0.278 3 4 cbr 1000 ------- 1 0.0 4.0 13 14
- 0.28 0 2 cbr 1000 ------- 1 0.0 4.0 35 36
+ 0.28 0 2 cbr 1000 ------- 1 0.0 4.0 70 72
r 0.282 0 2 cbr 1000 ------- 1 0.0 4.0 28 29
+ 0.282 2 3 cbr 1000 ------- 1 0.0 4.0 28 29
- 0.282 2 3 cbr 1000 ------- 1 0.0 4.0 28 29
r 0.284 2 3 cbr 1000 ------- 1 0.0 4.0 21 22
+ 0.284 3 4 cbr 1000 ------- 1 0.0 4.0 21 22
- 0.284 3 4 cbr 1000 ------- 1 0.0 4.0 21 22
+ 0.284 0 2 cbr 1000 ------- 1 0.0 4.0 71 73
r 0.286 3 4 cbr 1000 ------- 1 0.0 4.0 14 15
- 0.288 0 2 cbr 1000 ------- 1 0.0 4.0 36 37
+ 0.288 0 2 cbr 1000 ------- 1 0.0 4.0 72 74
r 0.29 0 2 cbr 1000 ------- 1 0.0 4.0 29 30
+ 0.29 2 3 cbr 1000 ------- 1 0.0 4.0 29 30
- 0.29 2 3 cbr 1000 ------- 1 0.0 4.0 29 30
r 0.292 2 3 cbr 1000 ------- 1 0.0 4.0 22 23
+ 0.292 3 4 cbr 1000 ------- 1 0.0 4.0 22 23
- 0.292 3 4 cbr 1000 ------- 1 0.0 4.0 22 23
+ 0.292 0 2 cbr 1000 ------- 1 0.0 4.0 73 75
r 0.294 3 4 cbr 1000 ------- 1 0.0 4.0 15 16
- 0.296 0 2 cbr 1000 ------- 1 0.0 4.0 37 38
+ 0.296 0 2 cbr 1000 ------- 1 0.0 4.0 74 76
r 0.298 0 2 cbr 1000 ------- 1 0.0 4.0 30 31
+ 0.298 2 3 cbr 1000 ------- 1 0.0 4.0 30 31
- 0.298 2 3 cbr 1000 ------- 1 0.0 4.0 30 31
r 0.3 2 3 cbr 1000 ------- 1 0.0 4.0 23 24
+ 0.3 3 4 cbr 1000 ------- 1 0.0 4.0 23 24
- 0.3 3 4 cbr 1000 ------- 1 0.0 4.0 23 24
+ 0.3 0 2 cbr 1000 ------- 1 0.0 4.0 75 77
r 0.30192 2 1 ack 40 ------- 2 5.0 1.0 0 39
+ 0.30192 1 2 tcp 1040 ------- 2 1.0 5.0 1 78
- 0.30192 1 2 tcp 1040 ------- 2 1.0 5.0 1 78
+ 0.30192 1 2 tcp 1040 ------- 2 1.0 5.0 2 79
r 0.302 3 4 cbr 1000 ------- 1 0.0 4.0 16 17
- 0.304 0 2 cbr 1000 ------- 1 0.0 4.0 38 40
+ 0.304 0 2 cbr 1000 ------- 1 0.0 4.0 76 80
r 0.306 0 2 cbr 1000 ------- 1 0.0 4.0 31 32
+ 0.306 2 3 cbr 1000 ------- 1 0.0 4.0 31 32
- 0.306 2 3 cbr 1000 ------- 1 0.0 4.0 31 32
r 0.308 2 3 cbr 1000 ------- 1 0.0 4.0 24 25
+ 0.308 3 4 cbr 1000 ------- 1 0.0 4.0 24 25
- 0.308 3 4 cbr 1000 ------- 1 0.0 4.0 24 25
+ 0.308 0 2 cbr 1000 ------- 1 0.0 4.0 77 81
r 0.31 3 4 cbr 1000 ------- 1 0.0 4.0 17 18
- 0.31024 1 2 tcp 1040 ------- 2 1.0 5.0 2 79
- 0.312 0 2 cbr 1000 ------- 1 0.0 4.0 39 41
+ 0.312 0 2 cbr 1000 ------- 1 0.0 4.0 78 82
r 0.314 0 2 cbr 1000 ------- 1 0.0 4.0 32 33
+ 0.314 2 3 cbr 1000 ------- 1 0.0 4.0 32 33
- 0.314 2 3 cbr 1000 ------- 1 0.0 4.0 32 33
r 0.316 2 3 cbr 1000 ------- 1 0.0 4.0 25 26
+ 0.316 3 4 cbr 1000 ------- 1 0.0 4.0 25 26
- 0.316 3 4 cbr 1000 ------- 1 0.0 4.0 25 26
+ 0.316 0 2 cbr 1000 ------- 1 0.0 4.0 79 83
r 0.318 3 4 cbr 1000 ------- 1 0.0 4.0 18 19
- 0.32 0 2 cbr 1000 ------- 1 0.0 4.0 40 42
+ 0.32 0 2 cbr 1000 ------- 1 0.0 4.0 80 84
r 0.322 0 2 cbr 1000 ------- 1 0.0 4.0 33 34
+ 0.322 2 3 cbr 1000 ------- 1 0.0 4.0 33 34
- 0.322 2 3 cbr 1000 ------- 1 0.0 4.0 33 34
r 0.324 2 3 cbr 1000 ------- 1 0.0 4.0 26 27
+ 0.324 3 4 cbr 1000 ------- 1 0.0 4.0 26 27
- 0.324 3 4 cbr 1000 ------- 1 0.0 4.0 26 27
+ 0.324 0 2 cbr 1000 ------- 1 0.0 4.0 81 85
r 0.326 3 4 cbr 1000 ------- 1 0.0 4.0 19 20
- 0.328 0 2 cbr 1000 ------- 1 0.0 4.0 41 43
+ 0.328 0 2 cbr 1000 ------- 1 0.0 4.0 82 86
r 0.33 0 2 cbr 1000 ------- 1 0.0 4.0 34 35
+ 0.33 2 3 cbr 1000 ------- 1 0.0 4.0 34 35
- 0.33 2 3 cbr 1000 ------- 1 0.0 4.0 34 35
r 0.332 2 3 cbr 1000 ------- 1 0.0 4.0 27 28
+ 0.332 3 4 cbr 1000 ------- 1 0.0 4.0 27 28
- 0.332 3 4 cbr 1000 ------- 1 0.0 4.0 27 28
+ 0.332 0 2 cbr 1000 ------- 1 0.0 4.0 83 87
r 0.334 3 4 cbr 1000 ------- 1 0.0 4.0 20 21
- 0.336 0 2 cbr 1000 ------- 1 0.0 4.0 42 44
+ 0.336 0 2 cbr 1000 ------- 1 0.0 4.0 84 88
r 0.338 0 2 cbr 1000 ------- 1 0.0 4.0 35 36
+ 0.338 2 3 cbr 1000 ------- 1 0.0 4.0 35 36
- 0.338 2 3 cbr 1000 ------- 1 0.0 4.0 35 36
r 0.34 2 3 cbr 1000 ------- 1 0.0 4.0 28 29
+ 0.34 3 4 cbr 1000 ------- 1 0.0 4.0 28 29
- 0.34 3 4 cbr 1000 ------- 1 0.0 4.0 28 29
+ 0.34 0 2 cbr 1000 ------- 1 0.0 4.0 85 89
r 0.342 3 4 cbr 1000 ------- 1 0.0 4.0 21 22
- 0.344 0 2 cbr 1000 ------- 1 0.0 4.0 43 45
+ 0.344 0 2 cbr 1000 ------- 1 0.0 4.0 86 90
r 0.346 0 2 cbr 1000 ------- 1 0.0 4.0 36 37
+ 0.346 2 3 cbr 1000 ------- 1 0.0 4.0 36 37
- 0.346 2 3 cbr 1000 ------- 1 0.0 4.0 36 37
r 0.348 2 3 cbr 1000 ------- 1 0.0 4.0 29 30
+ 0.348 3 4 cbr 1000 ------- 1 0.0 4.0 29 30
- 0.348 3 4 cbr 1000 ------- 1 0.0 4.0 29 30
+ 0.348 0 2 cbr 1000 ------- 1 0.0 4.0 87 91
r 0.35 3 4 cbr 1000 ------- 1 0.0 4.0 22 23
- 0.352 0 2 cbr 1000 ------- 1 0.0 4.0 44 46
+ 0.352 0 2 cbr 1000 ------- 1 0.0 4.0 88 92
r 0.354 0 2 cbr 1000 ------- 1 0.0 4.0 37 38
+ 0.354 2 3 cbr 1000 ------- 1 0.0 4.0 37 38
- 0.354 2 3 cbr 1000 ------- 1 0.0 4.0 37 38
r 0.356 2 3 cbr 1000 ------- 1 0.0 4.0 30 31
+ 0.356 3 4 cbr 1000 ------- 1 0.0 4.0 30 31
- 0.356 3 4 cbr 1000 ------- 1 0.0 4.0 30 31
+ 0.356 0 2 cbr 1000 ------- 1 0.0 4.0 89 93
r 0.358 3 4 cbr 1000 ------- 1 0.0 4.0 23 24
- 0.36 0 2 cbr 1000 ------- 1 0.0 4.0 45 47
+ 0.36 0 2 cbr 1000 ------- 1 0.0 4.0 90 94
r 0.36024 1 2 tcp 1040 ------- 2 1.0 5.0 1 78
+ 0.36024 2 3 tcp 1040 ------- 2 1.0 5.0 1 78
r 0.362 0 2 cbr 1000 ------- 1 0.0 4.0 38 40
+ 0.362 2 3 cbr 1000 ------- 1 0.0 4.0 38 40
- 0.362 2 3 tcp 1040 ------- 2 1.0 5.0 1 78
r 0.364 2 3 cbr 1000 ------- 1 0.0 4.0 31 32
+ 0.364 3 4 cbr 1000 ------- 1 0.0 4.0 31 32
- 0.364 3 4 cbr 1000 ------- 1 0.0 4.0 31 32
+ 0.364 0 2 cbr 1000 ------- 1 0.0 4.0 91 95
r 0.366 3 4 cbr 1000 ------- 1 0.0 4.0 24 25
- 0.368 0 2 cbr 1000 ------- 1 0.0 4.0 46 48
+ 0.368 0 2 cbr 1000 ------- 1 0.0 4.0 92 96
r 0.36856 1 2 tcp 1040 ------- 2 1.0 5.0 2 79
+ 0.36856 2 3 tcp 1040 ------- 2 1.0 5.0 2 79
r 0.37 0 2 cbr 1000 ------- 1 0.0 4.0 39 41
+ 0.37 2 3 cbr 1000 ------- 1 0.0 4.0 39 41
- 0.37032 2 3 cbr 1000 ------- 1 0.0 4.0 38 40
r 0.372 2 3 cbr 1000 ------- 1 0.0 4.0 32 33
+ 0.372 3 4 cbr 1000 ------- 1 0.0 4.0 32 33
- 0.372 3 4 cbr 1000 ------- 1 0.0 4.0 32 33
+ 0.372 0 2 cbr 1000 ------- 1 0.0 4.0 93 97
r 0.374 3 4 cbr 1000 ------- 1 0.0 4.0 25 26
- 0.376 0 2 cbr 1000 ------- 1 0.0 4.0 47 49
+ 0.376 0 2 cbr 1000 ------- 1 0.0 4.0 94 98
r 0.378 0 2 cbr 1000 ------- 1 0.0 4.0 40 42
+ 0.378 2 3 cbr 1000 ------- 1 0.0 4.0 40 42
- 0.37832 2 3 tcp 1040 ------- 2 1.0 5.0 2 79
r 0.38 2 3 cbr 1000 ------- 1 0.0 4.0 33 34
+ 0.38 3 4 cbr 1000 ------- 1 0.0 4.0 33 34
- 0.38 3 4 cbr 1000 ------- 1 0.0 4.0 33 34
+ 0.38 0 2 cbr 1000 ------- 1 0.0 4.0 95 99
r 0.382 3 4 cbr 1000 ------- 1 0.0 4.0 26 27
- 0.384 0 2 cbr 1000 ------- 1 0.0 4.0 48 50
+ 0.384 0 2 cbr 1000 ------- 1 0.0 4.0 96 100
r 0.386 0 2 cbr 1000 ------- 1 0.0 4.0 41 43
+ 0.386 2 3 cbr 1000 ------- 1 0.0 4.0 41 43
- 0.38664 2 3 cbr 1000 ------- 1 0.0 4.0 39 41
r 0.388 2 3 cbr 1000 ------- 1 0.0 4.0 34 35
+ 0.388 3 4 cbr 1000 ------- 1 0.0 4.0 34 35
- 0.388 3 4 cbr 1000 ------- 1 0.0 4.0 34 35
+ 0.388 0 2 cbr 1000 ------- 1 0.0 4.0 97 101
r 0.39 3 4 cbr 1000 ------- 1 0.0 4.0 27 28
- 0.392 0 2 cbr 1000 ------- 1 0.0 4.0 49 51
+ 0.392 0 2 cbr 1000 ------- 1 0.0 4.0 98 102
r 0.394 0 2 cbr 1000 ------- 1 0.0 4.0 42 44
+ 0.394 2 3 cbr 1000 ------- 1 0.0 4.0 42 44
- 0.39464 2 3 cbr 1000 ------- 1 0.0 4.0 40 42
r 0.396 2 3 cbr 1000 ------- 1 0.0 4.0 35 36
+ 0.396 3 4 cbr 1000 ------- 1 0.0 4.0 35 36
- 0.396 3 4 cbr 1000 ------- 1 0.0 4.0 35 36
+ 0.396 0 2 cbr 1000 ------- 1 0.0 4.0 99 103
d 0.396 0 2 cbr 1000 ------- 1 0.0 4.0 99 103
r 0.398 3 4 cbr 1000 ------- 1 0.0 4.0 28 29
- 0.4 0 2 cbr 1000 ------- 1 0.0 4.0 50 52
+ 0.4 0 2 cbr 1000 ------- 1 0.0 4.0 100 104
r 0.402 0 2 cbr 1000 ------- 1 0.0 4.0 43 45
+ 0.402 2 3 cbr 1000 ------- 1 0.0 4.0 43 45
- 0.40264 2 3 cbr 1000 ------- 1 0.0 4.0 41 43
r 0.404 2 3 cbr 1000 ------- 1 0.0 4.0 36 37
+ 0.404 3 4 cbr 1000 ------- 1 0.0 4.0 36 37
- 0.404 3 4 cbr 1000 ------- 1 0.0 4.0 36 37
+ 0.404 0 2 cbr 1000 ------- 1 0.0 4.0 101 105
d 0.404 0 2 cbr 1000 ------- 1 0.0 4.0 101 105
r 0.406 3 4 cbr 1000 ------- 1 0.0 4.0 29 30
- 0.408 0 2 cbr 1000 ------- 1 0.0 4.0 51 53
+ 0.408 0 2 cbr 1000 ------- 1 0.0 4.0 102 106
r 0.41 0 2 cbr 1000 ------- 1 0.0 4.0 44 46
+ 0.41 2 3 cbr 1000 ------- 1 0.0 4.0 44 46
- 0.41064 2 3 cbr 1000 ------- 1 0.0 4.0 42 44
r 0.412 2 3 cbr 1000 ------- 1 0.0 4.0 37 38
+ 0.412 3 4 cbr 1000 ------- 1 0.0 4.0 37 38
- 0.412 3 4 cbr 1000 ------- 1 0.0 4.0 37 38
+ 0.412 0 2 cbr 1000 ------- 1 0.0 4.0 103 107
d 0.412 0 2 cbr 1000 ------- 1 0.0 4.0 103 107
r 0.414 3 4 cbr 1000 ------- 1 0.0 4.0 30 31
- 0.416 0 2 cbr 1000 ------- 1 0.0 4.0 52 54
+ 0.416 0 2 cbr 1000 ------- 1 0.0 4.0 104 108
r 0.418 0 2 cbr 1000 ------- 1 0.0 4.0 45 47
+ 0.418 2 3 cbr 1000 ------- 1 0.0 4.0 45 47
- 0.41864 2 3 cbr 1000 ------- 1 0.0 4.0 43 45
+ 0.42 0 2 cbr 1000 ------- 1 0.0 4.0 105 109
d 0.42 0 2 cbr 1000 ------- 1 0.0 4.0 105 109
r 0.42032 2 3 tcp 1040 ------- 2 1.0 5.0 1 78
+ 0.42032 3 5 tcp 1040 ------- 2 1.0 5.0 1 78
- 0.42032 3 5 tcp 1040 ------- 2 1.0 5.0 1 78
r 0.422 3 4 cbr 1000 ------- 1 0.0 4.0 31 32
- 0.424 0 2 cbr 1000 ------- 1 0.0 4.0 53 55
+ 0.424 0 2 cbr 1000 ------- 1 0.0 4.0 106 110
r 0.426 0 2 cbr 1000 ------- 1 0.0 4.0 46 48
+ 0.426 2 3 cbr 1000 ------- 1 0.0 4.0 46 48
- 0.42664 2 3 cbr 1000 ------- 1 0.0 4.0 44 46
+ 0.428 0 2 cbr 1000 ------- 1 0.0 4.0 107 111
d 0.428 0 2 cbr 1000 ------- 1 0.0 4.0 107 111
r 0.42832 2 3 cbr 1000 ------- 1 0.0 4.0 38 40
+ 0.42832 3 4 cbr 1000 ------- 1 0.0 4.0 38 40
- 0.42832 3 4 cbr 1000 ------- 1 0.0 4.0 38 40
r 0.43 3 4 cbr 1000 ------- 1 0.0 4.0 32 33
- 0.432 0 2 cbr 1000 ------- 1 0.0 4.0 54 56
+ 0.432 0 2 cbr 1000 ------- 1 0.0 4.0 108 112
r 0.434 0 2 cbr 1000 ------- 1 0.0 4.0 47 49
+ 0.434 2 3 cbr 1000 ------- 1 0.0 4.0 47 49
- 0.43464 2 3 cbr 1000 ------- 1 0.0 4.0 45 47
+ 0.436 0 2 cbr 1000 ------- 1 0.0 4.0 109 113
d 0.436 0 2 cbr 1000 ------- 1 0.0 4.0 109 113
r 0.43664 2 3 tcp 1040 ------- 2 1.0 5.0 2 79
+ 0.43664 3 5 tcp 1040 ------- 2 1.0 5.0 2 79
- 0.43664 3 5 tcp 1040 ------- 2 1.0 5.0 2 79
r 0.438 3 4 cbr 1000 ------- 1 0.0 4.0 33 34
- 0.44 0 2 cbr 1000 ------- 1 0.0 4.0 55 57
+ 0.44 0 2 cbr 1000 ------- 1 0.0 4.0 110 114
r 0.442 0 2 cbr 1000 ------- 1 0.0 4.0 48 50
+ 0.442 2 3 cbr 1000 ------- 1 0.0 4.0 48 50
- 0.44264 2 3 cbr 1000 ------- 1 0.0 4.0 46 48
+ 0.444 0 2 cbr 1000 ------- 1 0.0 4.0 111 115
d 0.444 0 2 cbr 1000 ------- 1 0.0 4.0 111 115
r 0.44464 2 3 cbr 1000 ------- 1 0.0 4.0 39 41
+ 0.44464 3 4 cbr 1000 ------- 1 0.0 4.0 39 41
- 0.44464 3 4 cbr 1000 ------- 1 0.0 4.0 39 41
r 0.446 3 4 cbr 1000 ------- 1 0.0 4.0 34 35
- 0.448 0 2 cbr 1000 ------- 1 0.0 4.0 56 58
+ 0.448 0 2 cbr 1000 ------- 1 0.0 4.0 112 116
r 0.45 0 2 cbr 1000 ------- 1 0.0 4.0 49 51
+ 0.45 2 3 cbr 1000 ------- 1 0.0 4.0 49 51
- 0.45064 2 3 cbr 1000 ------- 1 0.0 4.0 47 49
+ 0.452 0 2 cbr 1000 ------- 1 0.0 4.0 113 117
d 0.452 0 2 cbr 1000 ------- 1 0.0 4.0 113 117
r 0.45264 2 3 cbr 1000 ------- 1 0.0 4.0 40 42
+ 0.45264 3 4 cbr 1000 ------- 1 0.0 4.0 40 42
- 0.45264 3 4 cbr 1000 ------- 1 0.0 4.0 40 42
r 0.454 3 4 cbr 1000 ------- 1 0.0 4.0 35 36
- 0.456 0 2 cbr 1000 ------- 1 0.0 4.0 57 59
+ 0.456 0 2 cbr 1000 ------- 1 0.0 4.0 114 118
r 0.458 0 2 cbr 1000 ------- 1 0.0 4.0 50 52
+ 0.458 2 3 cbr 1000 ------- 1 0.0 4.0 50 52
- 0.45864 2 3 cbr 1000 ------- 1 0.0 4.0 48 50
+ 0.46 0 2 cbr 1000 ------- 1 0.0 4.0 115 119
d 0.46 0 2 cbr 1000 ------- 1 0.0 4.0 115 119
r 0.46064 2 3 cbr 1000 ------- 1 0.0 4.0 41 43
+ 0.46064 3 4 cbr 1000 ------- 1 0.0 4.0 41 43
- 0.46064 3 4 cbr 1000 ------- 1 0.0 4.0 41 43
r 0.462 3 4 cbr 1000 ------- 1 0.0 4.0 36 37
- 0.464 0 2 cbr 1000 ------- 1 0.0 4.0 58 60
+ 0.464 0 2 cbr 1000 ------- 1 0.0 4.0 116 120
r 0.466 0 2 cbr 1000 ------- 1 0.0 4.0 51 53
+ 0.466 2 3 cbr 1000 ------- 1 0.0 4.0 51 53
- 0.46664 2 3 cbr 1000 ------- 1 0.0 4.0 49 51
+ 0.468 0 2 cbr 1000 ------- 1 0.0 4.0 117 121
d 0.468 0 2 cbr 1000 ------- 1 0.0 4.0 117 121
r 0.46864 2 3 cbr 1000 ------- 1 0.0 4.0 42 44
+ 0.46864 3 4 cbr 1000 ------- 1 0.0 4.0 42 44
- 0.46864 3 4 cbr 1000 ------- 1 0.0 4.0 42 44
r 0.47 3 4 cbr 1000 ------- 1 0.0 4.0 37 38
- 0.472 0 2 cbr 1000 ------- 1 0.0 4.0 59 61
+ 0.472 0 2 cbr 1000 ------- 1 0.0 4.0 118 122
r 0.474 0 2 cbr 1000 ------- 1 0.0 4.0 52 54
+ 0.474 2 3 cbr 1000 ------- 1 0.0 4.0 52 54
- 0.47464 2 3 cbr 1000 ------- 1 0.0 4.0 50 52
+ 0.476 0 2 cbr 1000 ------- 1 0.0 4.0 119 123
d 0.476 0 2 cbr 1000 ------- 1 0.0 4.0 119 123
r 0.47664 2 3 cbr 1000 ------- 1 0.0 4.0 43 45
+ 0.47664 3 4 cbr 1000 ------- 1 0.0 4.0 43 45
- 0.47664 3 4 cbr 1000 ------- 1 0.0 4.0 43 45
r 0.47864 3 5 tcp 1040 ------- 2 1.0 5.0 1 78
+ 0.47864 5 3 ack 40 ------- 2 5.0 1.0 1 124
- 0.47864 5 3 ack 40 ------- 2 5.0 1.0 1 124
- 0.48 0 2 cbr 1000 ------- 1 0.0 4.0 60 62
+ 0.48 0 2 cbr 1000 ------- 1 0.0 4.0 120 125
r 0.482 0 2 cbr 1000 ------- 1 0.0 4.0 53 55
+ 0.482 2 3 cbr 1000 ------- 1 0.0 4.0 53 55
- 0.48264 2 3 cbr 1000 ------- 1 0.0 4.0 51 53
+ 0.484 0 2 cbr 1000 ------- 1 0.0 4.0 121 126
d 0.484 0 2 cbr 1000 ------- 1 0.0 4.0 121 126
r 0.48464 2 3 cbr 1000 ------- 1 0.0 4.0 44 46
+ 0.48464 3 4 cbr 1000 ------- 1 0.0 4.0 44 46
- 0.48464 3 4 cbr 1000 ------- 1 0.0 4.0 44 46
r 0.48632 3 4 cbr 1000 ------- 1 0.0 4.0 38 40
- 0.488 0 2 cbr 1000 ------- 1 0.0 4.0 61 63
+ 0.488 0 2 cbr 1000 ------- 1 0.0 4.0 122 127
r 0.49 0 2 cbr 1000 ------- 1 0.0 4.0 54 56
+ 0.49 2 3 cbr 1000 ------- 1 0.0 4.0 54 56
- 0.49064 2 3 cbr 1000 ------- 1 0.0 4.0 52 54
+ 0.492 0 2 cbr 1000 ------- 1 0.0 4.0 123 128
d 0.492 0 2 cbr 1000 ------- 1 0.0 4.0 123 128
r 0.49264 2 3 cbr 1000 ------- 1 0.0 4.0 45 47
+ 0.49264 3 4 cbr 1000 ------- 1 0.0 4.0 45 47
- 0.49264 3 4 cbr 1000 ------- 1 0.0 4.0 45 47
r 0.49496 3 5 tcp 1040 ------- 2 1.0 5.0 2 79
+ 0.49496 5 3 ack 40 ------- 2 5.0 1.0 2 129
- 0.49496 5 3 ack 40 ------- 2 5.0 1.0 2 129
- 0.496 0 2 cbr 1000 ------- 1 0.0 4.0 62 64
+ 0.496 0 2 cbr 1000 ------- 1 0.0 4.0 124 130
r 0.498 0 2 cbr 1000 ------- 1 0.0 4.0 55 57
+ 0.498 2 3 cbr 1000 ------- 1 0.0 4.0 55 57
- 0.49864 2 3 cbr 1000 ------- 1 0.0 4.0 53 55
+ 0.5 0 2 cbr 1000 ------- 1 0.0 4.0 125 131
d 0.5 0 2 cbr 1000 ------- 1 0.0 4.0 125 131
r 0.50064 2 3 cbr 1000 ------- 1 0.0 4.0 46 48
+ 0.50064 3 4 cbr 1000 ------- 1 0.0 4.0 46 48
- 0.50064 3 4 cbr 1000 ------- 1 0.0 4.0 46 48
r 0.50264 3 4 cbr 1000 ------- 1 0.0 4.0 39 41
- 0.504 0 2 cbr 1000 ------- 1 0.0 4.0 63 65
+ 0.504 0 2 cbr 1000 ------- 1 0.0 4.0 126 132
r 0.506 0 2 cbr 1000 ------- 1 0.0 4.0 56 58
+ 0.506 2 3 cbr 1000 ------- 1 0.0 4.0 56 58
- 0.50664 2 3 cbr 1000 ------- 1 0.0 4.0 54 56
+ 0.508 0 2 cbr 1000 ------- 1 0.0 4.0 127 133
d 0.508 0 2 cbr 1000 ------- 1 0.0 4.0 127 133
r 0.50864 2 3 cbr 1000 ------- 1 0.0 4.0 47 49
+ 0.50864 3 4 cbr 1000 ------- 1 0.0 4.0 47 49
- 0.50864 3 4 cbr 1000 ------- 1 0.0 4.0 47 49
r 0.51064 3 4 cbr 1000 ------- 1 0.0 4.0 40 42
- 0.512 0 2 cbr 1000 ------- 1 0.0 4.0 64 66
+ 0.512 0 2 cbr 1000 ------- 1 0.0 4.0 128 134
r 0.514 0 2 cbr 1000 ------- 1 0.0 4.0 57 59
+ 0.514 2 3 cbr 1000 ------- 1 0.0 4.0 57 59
- 0.51464 2 3 cbr 1000 ------- 1 0.0 4.0 55 57
+ 0.516 0 2 cbr 1000 ------- 1 0.0 4.0 129 135
d 0.516 0 2 cbr 1000 ------- 1 0.0 4.0 129 135
r 0.51664 2 3 cbr 1000 ------- 1 0.0 4.0 48 50
+ 0.51664 3 4 cbr 1000 ------- 1 0.0 4.0 48 50
- 0.51664 3 4 cbr 1000 ------- 1 0.0 4.0 48 50
r 0.51864 3 4 cbr 1000 ------- 1 0.0 4.0 41 43
- 0.52 0 2 cbr 1000 ------- 1 0.0 4.0 65 67
+ 0.52 0 2 cbr 1000 ------- 1 0.0 4.0 130 136
r 0.522 0 2 cbr 1000 ------- 1 0.0 4.0 58 60
+ 0.522 2 3 cbr 1000 ------- 1 0.0 4.0 58 60
- 0.52264 2 3 cbr 1000 ------- 1 0.0 4.0 56 58
+ 0.524 0 2 cbr 1000 ------- 1 0.0 4.0 131 137
d 0.524 0 2 cbr 1000 ------- 1 0.0 4.0 131 137
r 0.52464 2 3 cbr 1000 ------- 1 0.0 4.0 49 51
+ 0.52464 3 4 cbr 1000 ------- 1 0.0 4.0 49 51
- 0.52464 3 4 cbr 1000 ------- 1 0.0 4.0 49 51
r 0.52664 3 4 cbr 1000 ------- 1 0.0 4.0 42 44
- 0.528 0 2 cbr 1000 ------- 1 0.0 4.0 66 68
+ 0.528 0 2 cbr 1000 ------- 1 0.0 4.0 132 138
r 0.52896 5 3 ack 40 ------- 2 5.0 1.0 1 124
+ 0.52896 3 2 ack 40 ------- 2 5.0 1.0 1 124
- 0.52896 3 2 ack 40 ------- 2 5.0 1.0 1 124
r 0.53 0 2 cbr 1000 ------- 1 0.0 4.0 59 61
+ 0.53 2 3 cbr 1000 ------- 1 0.0 4.0 59 61
- 0.53064 2 3 cbr 1000 ------- 1 0.0 4.0 57 59
+ 0.532 0 2 cbr 1000 ------- 1 0.0 4.0 133 139
d 0.532 0 2 cbr 1000 ------- 1 0.0 4.0 133 139
r 0.53264 2 3 cbr 1000 ------- 1 0.0 4.0 50 52
+ 0.53264 3 4 cbr 1000 ------- 1 0.0 4.0 50 52
- 0.53264 3 4 cbr 1000 ------- 1 0.0 4.0 50 52
r 0.53464 3 4 cbr 1000 ------- 1 0.0 4.0 43 45
- 0.536 0 2 cbr 1000 ------- 1 0.0 4.0 67 69
+ 0.536 0 2 cbr 1000 ------- 1 0.0 4.0 134 140
r 0.538 0 2 cbr 1000 ------- 1 0.0 4.0 60 62
+ 0.538 2 3 cbr 1000 ------- 1 0.0 4.0 60 62
- 0.53864 2 3 cbr 1000 ------- 1 0.0 4.0 58 60
+ 0.54 0 2 cbr 1000 ------- 1 0.0 4.0 135 141
d 0.54 0 2 cbr 1000 ------- 1 0.0 4.0 135 141
r 0.54064 2 3 cbr 1000 ------- 1 0.0 4.0 51 53
+ 0.54064 3 4 cbr 1000 ------- 1 0.0 4.0 51 53
- 0.54064 3 4 cbr 1000 ------- 1 0.0 4.0 51 53
r 0.54264 3 4 cbr 1000 ------- 1 0.0 4.0 44 46
- 0.544 0 2 cbr 1000 ------- 1 0.0 4.0 68 70
+ 0.544 0 2 cbr 1000 ------- 1 0.0 4.0 136 142
r 0.54528 5 3 ack 40 ------- 2 5.0 1.0 2 129
+ 0.54528 3 2 ack 40 ------- 2 5.0 1.0 2 129
- 0.54528 3 2 ack 40 ------- 2 5.0 1.0 2 129
r 0.546 0 2 cbr 1000 ------- 1 0.0 4.0 61 63
+ 0.546 2 3 cbr 1000 ------- 1 0.0 4.0 61 63
- 0.54664 2 3 cbr 1000 ------- 1 0.0 4.0 59 61
+ 0.548 0 2 cbr 1000 ------- 1 0.0 4.0 137 143
d 0.548 0 2 cbr 1000 ------- 1 0.0 4.0 137 143
r 0.54864 2 3 cbr 1000 ------- 1 0.0 4.0 52 54
+ 0.54864 3 4 cbr 1000 ------- 1 0.0 4.0 52 54
- 0.54864 3 4 cbr 1000 ------- 1 0.0 4.0 52 54
r 0.55064 3 4 cbr 1000 ------- 1 0.0 4.0 45 47
- 0.552 0 2 cbr 1000 ------- 1 0.0 4.0 69 71
+ 0.552 0 2 cbr 1000 ------- 1 0.0 4.0 138 144
r 0.554 0 2 cbr 1000 ------- 1 0.0 4.0 62 64
+ 0.554 2 3 cbr 1000 ------- 1 0.0 4.0 62 64
- 0.55464 2 3 cbr 1000 ------- 1 0.0 4.0 60 62